<?xml version="1.0" encoding="UTF-8"?>

<!-- generated on Sunday 20 January 2019 01:31:48 PM IST by SUMO gui Version 0.32.0
<?xml version="1.0" encoding="UTF-8"?>

<configuration xmlns:xsi="http://www.w3.org/2001/XMLSchema-instance" xsi:noNamespaceSchemaLocation="http://sumo.dlr.de/xsd/sumoConfiguration.xsd">

    <input>
        <net-file value="data/cross_2lanes.net.xml"/>
        <route-files value="data/cross.rou.xml"/>
        <additional-files value="data/cross.det.xml"/>
    </input>

    <output>
        <tripinfo-output value="tripinfo.xml"/>
    </output>

    <time>
        <begin value="0"/>
    </time>

    <processing>
        <lateral-resolution value="0.64"/>
    </processing>

    <report>
        <verbose value="true"/>
        <no-step-log value="true"/>
    </report>

    <gui_only>
        <start value="true"/>
    </gui_only>

</configuration>
-->

<detector xmlns:xsi="http://www.w3.org/2001/XMLSchema-instance" xsi:noNamespaceSchemaLocation="http://sumo.dlr.de/xsd/det_e1_file.xsd">
    <interval begin="0.00" end="30.00" id="0" nVehContrib="0" flow="0.00" occupancy="0.00" speed="-1.00" length="-1.00" nVehEntered="0"/>
    <interval begin="30.00" end="60.00" id="0" nVehContrib="3" flow="360.00" occupancy="1.94" speed="16.86" length="3.13" nVehEntered="3"/>
    <interval begin="60.00" end="90.00" id="0" nVehContrib="3" flow="360.00" occupancy="5.63" speed="12.89" length="7.33" nVehEntered="3"/>
    <interval begin="90.00" end="120.00" id="0" nVehContrib="1" flow="120.00" occupancy="0.43" speed="17.25" length="2.20" nVehEntered="1"/>
    <interval begin="120.00" end="150.00" id="0" nVehContrib="1" flow="120.00" occupancy="0.98" speed="5.45" length="1.60" nVehEntered="1"/>
    <interval begin="150.00" end="180.00" id="0" nVehContrib="4" flow="480.00" occupancy="62.36" speed="5.29" length="5.90" nVehEntered="5"/>
    <interval begin="180.00" end="210.00" id="0" nVehContrib="1" flow="120.00" occupancy="33.97" speed="0.09" length="2.20" nVehEntered="0"/>
    <interval begin="210.00" end="235.00" id="0" nVehContrib="4" flow="576.00" occupancy="59.56" speed="3.78" length="5.90" nVehEntered="5"/>
</detector>
