<?xml version="1.0" encoding="UTF-8"?>

<!-- generated on Saturday 19 January 2019 08:53:41 PM IST by SUMO gui Version 0.32.0
<?xml version="1.0" encoding="UTF-8"?>

<configuration xmlns:xsi="http://www.w3.org/2001/XMLSchema-instance" xsi:noNamespaceSchemaLocation="http://sumo.dlr.de/xsd/sumoConfiguration.xsd">

    <input>
        <net-file value="data/cross_2lanes.net.xml"/>
        <route-files value="data/cross.rou.xml"/>
        <additional-files value="data/cross.det.xml"/>
    </input>

    <output>
        <tripinfo-output value="tripinfo.xml"/>
    </output>

    <time>
        <begin value="0"/>
    </time>

    <processing>
        <lateral-resolution value="0.64"/>
    </processing>

    <report>
        <verbose value="true"/>
        <no-step-log value="true"/>
    </report>

    <gui_only>
        <start value="true"/>
    </gui_only>

</configuration>
-->

<tripinfos xmlns:xsi="http://www.w3.org/2001/XMLSchema-instance" xsi:noNamespaceSchemaLocation="http://sumo.dlr.de/xsd/tripinfo_file.xsd">
    <tripinfo id="3" depart="5.00" departLane="54o_0" departPos="2.30" departPosLat="0.00" departSpeed="0.00" departDelay="0.00" arrival="89.00" arrivalLane="53i_0" arrivalPos="10.00" arrivalPosLat="0.00" arrivalSpeed="15.51" duration="84.00" routeLength="1017.90" waitSteps="0" timeLoss="11.69" rerouteNo="0" devices="tripinfo_3" vType="type2" speedFactor="1.00" vaporized=""/>
    <tripinfo id="4" depart="7.00" departLane="54o_0" departPos="2.30" departPosLat="0.00" departSpeed="0.00" departDelay="2.00" arrival="90.00" arrivalLane="51i_0" arrivalPos="10.00" arrivalPosLat="0.00" arrivalSpeed="15.89" duration="83.00" routeLength="1016.17" waitSteps="0" timeLoss="11.04" rerouteNo="0" devices="tripinfo_4" vType="type2" speedFactor="1.00" vaporized=""/>
    <tripinfo id="5" depart="10.00" departLane="54o_0" departPos="2.30" departPosLat="0.00" departSpeed="0.00" departDelay="0.00" arrival="92.00" arrivalLane="52i_0" arrivalPos="10.00" arrivalPosLat="0.00" arrivalSpeed="13.93" duration="82.00" routeLength="1000.20" waitSteps="0" timeLoss="10.53" rerouteNo="0" devices="tripinfo_5" vType="type2" speedFactor="1.00" vaporized=""/>
    <tripinfo id="2" depart="8.00" departLane="51o_0" departPos="2.30" departPosLat="0.00" departSpeed="0.00" departDelay="3.00" arrival="93.00" arrivalLane="53i_0" arrivalPos="10.00" arrivalPosLat="0.00" arrivalSpeed="14.69" duration="85.00" routeLength="1016.17" waitSteps="0" timeLoss="12.85" rerouteNo="0" devices="tripinfo_2" vType="type2" speedFactor="1.00" vaporized=""/>
    <tripinfo id="0" depart="5.00" departLane="51o_0" departPos="2.30" departPosLat="0.00" departSpeed="0.00" departDelay="0.00" arrival="94.00" arrivalLane="52i_0" arrivalPos="10.00" arrivalPosLat="0.00" arrivalSpeed="15.03" duration="89.00" routeLength="1017.90" waitSteps="3" timeLoss="17.31" rerouteNo="0" devices="tripinfo_0" vType="type2" speedFactor="1.00" vaporized=""/>
    <tripinfo id="1" depart="7.00" departLane="51o_0" departPos="2.30" departPosLat="0.00" departSpeed="0.00" departDelay="2.00" arrival="95.00" arrivalLane="54i_0" arrivalPos="10.00" arrivalPosLat="0.00" arrivalSpeed="14.50" duration="88.00" routeLength="1000.20" waitSteps="0" timeLoss="17.17" rerouteNo="0" devices="tripinfo_1" vType="type2" speedFactor="1.00" vaporized=""/>
    <tripinfo id="12" depart="15.00" departLane="51o_0" departPos="5.10" departPosLat="0.00" departSpeed="0.00" departDelay="0.00" arrival="97.00" arrivalLane="52i_0" arrivalPos="10.00" arrivalPosLat="0.00" arrivalSpeed="12.17" duration="82.00" routeLength="1015.10" waitSteps="0" timeLoss="9.93" rerouteNo="0" devices="tripinfo_12" vType="type3" speedFactor="1.00" vaporized=""/>
    <tripinfo id="11" depart="18.00" departLane="53o_0" departPos="5.10" departPosLat="0.00" departSpeed="0.00" departDelay="3.00" arrival="99.00" arrivalLane="52i_0" arrivalPos="10.00" arrivalPosLat="0.00" arrivalSpeed="10.84" duration="81.00" routeLength="1013.37" waitSteps="0" timeLoss="9.42" rerouteNo="0" devices="tripinfo_11" vType="type3" speedFactor="1.00" vaporized=""/>
    <tripinfo id="10" depart="15.00" departLane="53o_0" departPos="5.10" departPosLat="0.00" departSpeed="0.00" departDelay="0.00" arrival="99.00" arrivalLane="51i_0" arrivalPos="10.00" arrivalPosLat="0.00" arrivalSpeed="12.07" duration="84.00" routeLength="997.40" waitSteps="1" timeLoss="13.83" rerouteNo="0" devices="tripinfo_10" vType="type3" speedFactor="1.00" vaporized=""/>
    <tripinfo id="9" depart="10.00" departLane="53o_0" departPos="2.30" departPosLat="0.00" departSpeed="0.00" departDelay="0.00" arrival="103.00" arrivalLane="54i_0" arrivalPos="10.00" arrivalPosLat="0.00" arrivalSpeed="15.21" duration="93.00" routeLength="1017.90" waitSteps="7" timeLoss="21.12" rerouteNo="0" devices="tripinfo_9" vType="type2" speedFactor="1.00" vaporized=""/>
    <tripinfo id="18" depart="20.00" departLane="52o_0" departPos="5.10" departPosLat="0.00" departSpeed="0.00" departDelay="0.00" arrival="108.00" arrivalLane="51i_0" arrivalPos="10.00" arrivalPosLat="0.00" arrivalSpeed="13.31" duration="88.00" routeLength="1015.10" waitSteps="0" timeLoss="16.59" rerouteNo="0" devices="tripinfo_18" vType="type3" speedFactor="1.00" vaporized=""/>
    <tripinfo id="20" depart="26.00" departLane="52o_0" departPos="5.10" departPosLat="0.00" departSpeed="0.00" departDelay="1.00" arrival="109.00" arrivalLane="53i_1" arrivalPos="10.00" arrivalPosLat="0.00" arrivalSpeed="12.98" duration="83.00" routeLength="997.40" waitSteps="0" timeLoss="12.58" rerouteNo="0" devices="tripinfo_20" vType="type4" speedFactor="1.00" vaporized=""/>
    <tripinfo id="19" depart="23.00" departLane="52o_0" departPos="5.10" departPosLat="0.00" departSpeed="0.00" departDelay="3.00" arrival="109.00" arrivalLane="54i_1" arrivalPos="10.00" arrivalPosLat="-0.74" arrivalSpeed="12.57" duration="86.00" routeLength="1013.37" waitSteps="1" timeLoss="14.04" rerouteNo="0" devices="tripinfo_19" vType="type3" speedFactor="1.00" vaporized=""/>
    <tripinfo id="8" depart="13.00" departLane="52o_0" departPos="2.30" departPosLat="0.00" departSpeed="0.00" departDelay="3.00" arrival="110.00" arrivalLane="53i_0" arrivalPos="10.00" arrivalPosLat="0.00" arrivalSpeed="14.10" duration="97.00" routeLength="1000.20" waitSteps="11" timeLoss="26.18" rerouteNo="0" devices="tripinfo_8" vType="type2" speedFactor="1.00" vaporized=""/>
    <tripinfo id="7" depart="11.00" departLane="52o_0" departPos="2.30" departPosLat="0.00" departSpeed="0.00" departDelay="1.00" arrival="110.00" arrivalLane="54i_0" arrivalPos="10.00" arrivalPosLat="0.00" arrivalSpeed="14.43" duration="99.00" routeLength="1016.17" waitSteps="11" timeLoss="26.91" rerouteNo="0" devices="tripinfo_7" vType="type2" speedFactor="1.00" vaporized=""/>
    <tripinfo id="6" depart="10.00" departLane="52o_0" departPos="2.30" departPosLat="0.00" departSpeed="0.00" departDelay="0.00" arrival="111.00" arrivalLane="51i_0" arrivalPos="10.00" arrivalPosLat="0.00" arrivalSpeed="12.39" duration="101.00" routeLength="1017.90" waitSteps="14" timeLoss="28.83" rerouteNo="0" devices="tripinfo_6" vType="type2" speedFactor="1.00" vaporized=""/>
    <tripinfo id="30" depart="35.00" departLane="52o_0" departPos="7.20" departPosLat="0.00" departSpeed="0.00" departDelay="0.00" arrival="119.00" arrivalLane="51i_0" arrivalPos="10.00" arrivalPosLat="0.00" arrivalSpeed="11.74" duration="84.00" routeLength="1013.00" waitSteps="0" timeLoss="12.38" rerouteNo="0" devices="tripinfo_30" vType="type5" speedFactor="1.00" vaporized=""/>
    <tripinfo id="16" depart="23.00" departLane="54o_0" departPos="5.10" departPosLat="0.00" departSpeed="0.00" departDelay="3.00" arrival="123.00" arrivalLane="51i_0" arrivalPos="10.00" arrivalPosLat="0.00" arrivalSpeed="12.14" duration="100.00" routeLength="1013.37" waitSteps="14" timeLoss="28.76" rerouteNo="0" devices="tripinfo_16" vType="type3" speedFactor="1.00" vaporized=""/>
    <tripinfo id="15" depart="20.00" departLane="54o_0" departPos="5.10" departPosLat="0.00" departSpeed="0.00" departDelay="0.00" arrival="124.00" arrivalLane="53i_0" arrivalPos="10.00" arrivalPosLat="0.00" arrivalSpeed="12.07" duration="104.00" routeLength="1015.10" waitSteps="18" timeLoss="31.84" rerouteNo="0" devices="tripinfo_15" vType="type3" speedFactor="1.00" vaporized=""/>
    <tripinfo id="17" depart="26.00" departLane="54o_0" departPos="5.10" departPosLat="0.00" departSpeed="0.00" departDelay="6.00" arrival="124.00" arrivalLane="52i_0" arrivalPos="10.00" arrivalPosLat="0.00" arrivalSpeed="12.82" duration="98.00" routeLength="997.40" waitSteps="12" timeLoss="27.47" rerouteNo="0" devices="tripinfo_17" vType="type3" speedFactor="1.00" vaporized=""/>
    <tripinfo id="27" depart="30.00" departLane="54o_0" departPos="5.10" departPosLat="0.00" departSpeed="0.00" departDelay="0.00" arrival="124.00" arrivalLane="53i_1" arrivalPos="10.00" arrivalPosLat="0.00" arrivalSpeed="12.40" duration="94.00" routeLength="1015.10" waitSteps="8" timeLoss="21.99" rerouteNo="0" devices="tripinfo_27" vType="type4" speedFactor="1.00" vaporized=""/>
    <tripinfo id="39" depart="40.00" departLane="54o_0" departPos="7.20" departPosLat="0.00" departSpeed="0.00" departDelay="0.00" arrival="126.00" arrivalLane="53i_0" arrivalPos="10.00" arrivalPosLat="0.00" arrivalSpeed="10.14" duration="86.00" routeLength="1013.00" waitSteps="0" timeLoss="14.68" rerouteNo="0" devices="tripinfo_39" vType="type5" speedFactor="1.00" vaporized=""/>
    <tripinfo id="29" depart="36.00" departLane="54o_0" departPos="5.10" departPosLat="0.00" departSpeed="0.00" departDelay="6.00" arrival="126.00" arrivalLane="52i_0" arrivalPos="10.00" arrivalPosLat="0.00" arrivalSpeed="12.81" duration="90.00" routeLength="997.40" waitSteps="5" timeLoss="19.44" rerouteNo="0" devices="tripinfo_29" vType="type4" speedFactor="1.00" vaporized=""/>
    <tripinfo id="28" depart="33.00" departLane="54o_0" departPos="5.10" departPosLat="0.00" departSpeed="0.00" departDelay="3.00" arrival="126.00" arrivalLane="51i_0" arrivalPos="10.00" arrivalPosLat="0.00" arrivalSpeed="12.78" duration="93.00" routeLength="1013.37" waitSteps="6" timeLoss="20.87" rerouteNo="0" devices="tripinfo_28" vType="type4" speedFactor="1.00" vaporized=""/>
    <tripinfo id="40" depart="45.00" departLane="54o_0" departPos="10.00" departPosLat="0.00" departSpeed="0.00" departDelay="0.00" arrival="130.00" arrivalLane="51i_0" arrivalPos="10.00" arrivalPosLat="0.00" arrivalSpeed="11.35" duration="85.00" routeLength="1008.47" waitSteps="0" timeLoss="13.18" rerouteNo="0" devices="tripinfo_40" vType="type6" speedFactor="1.00" vaporized=""/>
    <tripinfo id="41" depart="51.00" departLane="54o_0" departPos="10.00" departPosLat="0.00" departSpeed="0.00" departDelay="6.00" arrival="134.00" arrivalLane="52i_0" arrivalPos="10.00" arrivalPosLat="0.00" arrivalSpeed="11.16" duration="83.00" routeLength="992.50" waitSteps="0" timeLoss="13.11" rerouteNo="0" devices="tripinfo_41" vType="type6" speedFactor="1.00" vaporized=""/>
    <tripinfo id="13" depart="18.00" departLane="51o_0" departPos="5.10" departPosLat="0.00" departSpeed="0.00" departDelay="3.00" arrival="146.00" arrivalLane="54i_0" arrivalPos="10.00" arrivalPosLat="0.00" arrivalSpeed="12.21" duration="128.00" routeLength="997.40" waitSteps="42" timeLoss="57.44" rerouteNo="0" devices="tripinfo_13" vType="type3" speedFactor="1.00" vaporized=""/>
    <tripinfo id="24" depart="25.00" departLane="51o_0" departPos="5.10" departPosLat="0.00" departSpeed="0.00" departDelay="0.00" arrival="147.00" arrivalLane="52i_0" arrivalPos="10.00" arrivalPosLat="0.00" arrivalSpeed="11.02" duration="122.00" routeLength="1015.10" waitSteps="35" timeLoss="50.48" rerouteNo="0" devices="tripinfo_24" vType="type4" speedFactor="1.00" vaporized=""/>
    <tripinfo id="14" depart="21.00" departLane="51o_0" departPos="5.10" departPosLat="0.00" departSpeed="0.00" departDelay="6.00" arrival="148.00" arrivalLane="53i_0" arrivalPos="10.00" arrivalPosLat="0.00" arrivalSpeed="12.13" duration="127.00" routeLength="1013.37" waitSteps="40" timeLoss="55.06" rerouteNo="0" devices="tripinfo_14" vType="type3" speedFactor="1.00" vaporized=""/>
    <tripinfo id="25" depart="30.00" departLane="51o_0" departPos="5.10" departPosLat="0.00" departSpeed="0.00" departDelay="0.00" arrival="148.00" arrivalLane="54i_0" arrivalPos="10.00" arrivalPosLat="0.00" arrivalSpeed="12.46" duration="118.00" routeLength="997.40" waitSteps="33" timeLoss="47.58" rerouteNo="0" devices="tripinfo_25" vType="type4" speedFactor="1.00" vaporized=""/>
    <tripinfo id="26" depart="33.00" departLane="51o_0" departPos="5.10" departPosLat="0.00" departSpeed="0.00" departDelay="3.00" arrival="150.00" arrivalLane="53i_0" arrivalPos="10.00" arrivalPosLat="0.00" arrivalSpeed="12.64" duration="117.00" routeLength="1013.37" waitSteps="29" timeLoss="45.56" rerouteNo="0" devices="tripinfo_26" vType="type4" speedFactor="1.00" vaporized=""/>
    <tripinfo id="48" depart="55.00" departLane="51o_0" departPos="10.00" departPosLat="0.00" departSpeed="0.00" departDelay="5.00" arrival="151.00" arrivalLane="52i_1" arrivalPos="10.00" arrivalPosLat="0.00" arrivalSpeed="11.67" duration="96.00" routeLength="1010.20" waitSteps="2" timeLoss="24.87" rerouteNo="0" devices="tripinfo_48" vType="type6" speedFactor="1.00" vaporized=""/>
    <tripinfo id="36" depart="40.00" departLane="51o_0" departPos="7.20" departPosLat="0.00" departSpeed="0.00" departDelay="0.00" arrival="153.00" arrivalLane="52i_0" arrivalPos="10.00" arrivalPosLat="0.00" arrivalSpeed="11.51" duration="113.00" routeLength="1013.00" waitSteps="19" timeLoss="41.06" rerouteNo="0" devices="tripinfo_36" vType="type5" speedFactor="1.00" vaporized=""/>
    <tripinfo id="23" depart="31.00" departLane="53o_0" departPos="5.10" departPosLat="0.00" departSpeed="0.00" departDelay="6.00" arrival="155.00" arrivalLane="52i_0" arrivalPos="10.00" arrivalPosLat="0.00" arrivalSpeed="12.23" duration="124.00" routeLength="1013.37" waitSteps="38" timeLoss="52.64" rerouteNo="0" devices="tripinfo_23" vType="type4" speedFactor="1.00" vaporized=""/>
    <tripinfo id="21" depart="25.00" departLane="53o_0" departPos="5.10" departPosLat="0.00" departSpeed="0.00" departDelay="0.00" arrival="156.00" arrivalLane="54i_0" arrivalPos="10.00" arrivalPosLat="0.00" arrivalSpeed="12.53" duration="131.00" routeLength="1015.10" waitSteps="48" timeLoss="58.90" rerouteNo="0" devices="tripinfo_21" vType="type4" speedFactor="1.00" vaporized=""/>
    <tripinfo id="22" depart="28.00" departLane="53o_0" departPos="5.10" departPosLat="0.00" departSpeed="0.00" departDelay="3.00" arrival="156.00" arrivalLane="51i_0" arrivalPos="10.00" arrivalPosLat="0.00" arrivalSpeed="12.75" duration="128.00" routeLength="997.40" waitSteps="43" timeLoss="57.62" rerouteNo="0" devices="tripinfo_22" vType="type4" speedFactor="1.00" vaporized=""/>
    <tripinfo id="33" depart="35.00" departLane="53o_0" departPos="7.20" departPosLat="0.00" departSpeed="0.00" departDelay="0.00" arrival="157.00" arrivalLane="54i_1" arrivalPos="10.00" arrivalPosLat="0.00" arrivalSpeed="11.97" duration="122.00" routeLength="1013.00" waitSteps="30" timeLoss="50.33" rerouteNo="0" devices="tripinfo_33" vType="type5" speedFactor="1.00" vaporized=""/>
    <tripinfo id="35" depart="45.00" departLane="53o_0" departPos="7.20" departPosLat="0.00" departSpeed="0.00" departDelay="5.00" arrival="159.00" arrivalLane="52i_0" arrivalPos="10.00" arrivalPosLat="0.00" arrivalSpeed="11.88" duration="114.00" routeLength="1011.27" waitSteps="22" timeLoss="42.06" rerouteNo="0" devices="tripinfo_35" vType="type5" speedFactor="1.00" vaporized=""/>
    <tripinfo id="34" depart="40.00" departLane="53o_0" departPos="7.20" departPosLat="0.00" departSpeed="0.00" departDelay="5.00" arrival="159.00" arrivalLane="51i_0" arrivalPos="10.00" arrivalPosLat="0.00" arrivalSpeed="11.59" duration="119.00" routeLength="995.30" waitSteps="28" timeLoss="48.09" rerouteNo="0" devices="tripinfo_34" vType="type5" speedFactor="1.00" vaporized=""/>
    <tripinfo id="32" depart="44.00" departLane="52o_0" departPos="7.20" departPosLat="0.00" departSpeed="0.00" departDelay="9.00" arrival="163.00" arrivalLane="53i_0" arrivalPos="10.00" arrivalPosLat="0.00" arrivalSpeed="11.86" duration="119.00" routeLength="995.30" waitSteps="29" timeLoss="48.91" rerouteNo="0" devices="tripinfo_32" vType="type5" speedFactor="1.00" vaporized=""/>
    <tripinfo id="69" depart="74.00" departLane="53o_0" departPos="2.30" departPosLat="0.00" departSpeed="0.00" departDelay="4.00" arrival="165.00" arrivalLane="54i_0" arrivalPos="10.00" arrivalPosLat="0.00" arrivalSpeed="14.74" duration="91.00" routeLength="1017.90" waitSteps="0" timeLoss="18.88" rerouteNo="0" devices="tripinfo_69" vType="type2" speedFactor="1.00" vaporized=""/>
    <tripinfo id="42" depart="49.00" departLane="52o_0" departPos="10.00" departPosLat="0.00" departSpeed="0.00" departDelay="4.00" arrival="165.00" arrivalLane="51i_0" arrivalPos="10.00" arrivalPosLat="0.00" arrivalSpeed="11.16" duration="116.00" routeLength="1010.20" waitSteps="24" timeLoss="44.52" rerouteNo="0" devices="tripinfo_42" vType="type6" speedFactor="1.00" vaporized=""/>
    <tripinfo id="31" depart="40.00" departLane="52o_0" departPos="7.20" departPosLat="0.00" departSpeed="0.00" departDelay="5.00" arrival="165.00" arrivalLane="54i_1" arrivalPos="10.00" arrivalPosLat="-0.20" arrivalSpeed="10.68" duration="125.00" routeLength="1011.27" waitSteps="33" timeLoss="53.75" rerouteNo="0" devices="tripinfo_31" vType="type5" speedFactor="1.00" vaporized=""/>
    <tripinfo id="44" depart="60.00" departLane="52o_0" departPos="10.00" departPosLat="0.00" departSpeed="0.00" departDelay="15.00" arrival="166.00" arrivalLane="53i_0" arrivalPos="10.00" arrivalPosLat="0.00" arrivalSpeed="11.83" duration="106.00" routeLength="992.50" waitSteps="14" timeLoss="35.45" rerouteNo="0" devices="tripinfo_44" vType="type6" speedFactor="1.00" vaporized=""/>
    <tripinfo id="43" depart="54.00" departLane="52o_0" departPos="10.00" departPosLat="0.00" departSpeed="0.00" departDelay="9.00" arrival="168.00" arrivalLane="54i_0" arrivalPos="10.00" arrivalPosLat="0.00" arrivalSpeed="11.87" duration="114.00" routeLength="1008.47" waitSteps="21" timeLoss="42.42" rerouteNo="0" devices="tripinfo_43" vType="type6" speedFactor="1.00" vaporized=""/>
    <tripinfo id="78" depart="80.00" departLane="52o_0" departPos="5.10" departPosLat="0.00" departSpeed="0.00" departDelay="0.00" arrival="168.00" arrivalLane="51i_0" arrivalPos="10.00" arrivalPosLat="0.00" arrivalSpeed="12.01" duration="88.00" routeLength="1015.10" waitSteps="0" timeLoss="16.46" rerouteNo="0" devices="tripinfo_78" vType="type3" speedFactor="1.00" vaporized=""/>
    <tripinfo id="79" depart="83.00" departLane="52o_0" departPos="5.10" departPosLat="0.00" departSpeed="0.00" departDelay="3.00" arrival="175.00" arrivalLane="54i_0" arrivalPos="10.00" arrivalPosLat="1.46" arrivalSpeed="12.66" duration="92.00" routeLength="1013.37" waitSteps="0" timeLoss="20.23" rerouteNo="0" devices="tripinfo_79" vType="type3" speedFactor="1.00" vaporized=""/>
    <tripinfo id="38" depart="50.00" departLane="51o_0" departPos="7.20" departPosLat="0.00" departSpeed="0.00" departDelay="10.00" arrival="175.00" arrivalLane="53i_1" arrivalPos="10.00" arrivalPosLat="-0.44" arrivalSpeed="11.74" duration="125.00" routeLength="1011.27" waitSteps="26" timeLoss="53.65" rerouteNo="0" devices="tripinfo_38" vType="type5" speedFactor="1.00" vaporized=""/>
    <tripinfo id="66" depart="72.00" departLane="52o_0" departPos="2.30" departPosLat="0.00" departSpeed="0.00" departDelay="2.00" arrival="175.00" arrivalLane="51i_0" arrivalPos="10.00" arrivalPosLat="0.00" arrivalSpeed="10.88" duration="103.00" routeLength="1017.90" waitSteps="10" timeLoss="31.26" rerouteNo="0" devices="tripinfo_66" vType="type2" speedFactor="1.00" vaporized=""/>
    <tripinfo id="68" depart="77.00" departLane="52o_0" departPos="2.30" departPosLat="0.00" departSpeed="0.00" departDelay="7.00" arrival="176.00" arrivalLane="53i_0" arrivalPos="10.00" arrivalPosLat="0.00" arrivalSpeed="11.90" duration="99.00" routeLength="1000.20" waitSteps="7" timeLoss="28.19" rerouteNo="0" devices="tripinfo_68" vType="type2" speedFactor="1.00" vaporized=""/>
    <tripinfo id="67" depart="74.00" departLane="52o_0" departPos="2.30" departPosLat="0.00" departSpeed="0.00" departDelay="4.00" arrival="177.00" arrivalLane="54i_0" arrivalPos="10.00" arrivalPosLat="0.00" arrivalSpeed="14.54" duration="103.00" routeLength="1016.17" waitSteps="6" timeLoss="30.81" rerouteNo="0" devices="tripinfo_67" vType="type2" speedFactor="1.00" vaporized=""/>
    <tripinfo id="90" depart="95.00" departLane="52o_0" departPos="7.20" departPosLat="0.00" departSpeed="0.00" departDelay="0.00" arrival="179.00" arrivalLane="51i_0" arrivalPos="10.00" arrivalPosLat="0.00" arrivalSpeed="12.21" duration="84.00" routeLength="1013.00" waitSteps="0" timeLoss="12.00" rerouteNo="0" devices="tripinfo_90" vType="type5" speedFactor="1.00" vaporized=""/>
    <tripinfo id="91" depart="100.00" departLane="52o_0" departPos="7.20" departPosLat="0.00" departSpeed="0.00" departDelay="5.00" arrival="183.00" arrivalLane="54i_0" arrivalPos="10.00" arrivalPosLat="0.00" arrivalSpeed="11.82" duration="83.00" routeLength="1011.27" waitSteps="0" timeLoss="11.80" rerouteNo="0" devices="tripinfo_91" vType="type5" speedFactor="1.00" vaporized=""/>
    <tripinfo id="102" depart="110.00" departLane="52o_0" departPos="10.00" departPosLat="0.00" departSpeed="0.00" departDelay="5.00" arrival="196.00" arrivalLane="51i_0" arrivalPos="10.00" arrivalPosLat="0.00" arrivalSpeed="11.74" duration="86.00" routeLength="1010.20" waitSteps="0" timeLoss="14.16" rerouteNo="0" devices="tripinfo_102" vType="type6" speedFactor="1.00" vaporized=""/>
    <tripinfo id="103" depart="116.00" departLane="52o_0" departPos="10.00" departPosLat="0.00" departSpeed="0.00" departDelay="11.00" arrival="200.00" arrivalLane="54i_0" arrivalPos="10.00" arrivalPosLat="0.00" arrivalSpeed="12.03" duration="84.00" routeLength="1008.47" waitSteps="0" timeLoss="12.54" rerouteNo="0" devices="tripinfo_103" vType="type6" speedFactor="1.00" vaporized=""/>
    <tripinfo id="126" depart="132.00" departLane="52o_0" departPos="2.30" departPosLat="0.00" departSpeed="0.00" departDelay="2.00" arrival="217.00" arrivalLane="51i_0" arrivalPos="10.00" arrivalPosLat="0.00" arrivalSpeed="14.21" duration="85.00" routeLength="1017.90" waitSteps="0" timeLoss="12.62" rerouteNo="0" devices="tripinfo_126" vType="type2" speedFactor="1.00" vaporized=""/>
    <tripinfo id="80" depart="86.00" departLane="52o_0" departPos="5.10" departPosLat="0.00" departSpeed="0.00" departDelay="1.00" arrival="219.00" arrivalLane="53i_0" arrivalPos="10.00" arrivalPosLat="0.00" arrivalSpeed="11.80" duration="133.00" routeLength="997.40" waitSteps="0" timeLoss="62.10" rerouteNo="0" devices="tripinfo_80" vType="type4" speedFactor="1.00" vaporized=""/>
    <tripinfo id="92" depart="104.00" departLane="52o_0" departPos="7.20" departPosLat="0.00" departSpeed="0.00" departDelay="9.00" arrival="219.00" arrivalLane="53i_1" arrivalPos="10.00" arrivalPosLat="0.00" arrivalSpeed="12.01" duration="115.00" routeLength="995.30" waitSteps="1" timeLoss="44.84" rerouteNo="0" devices="tripinfo_92" vType="type5" speedFactor="1.00" vaporized=""/>
    <tripinfo id="138" depart="140.00" departLane="52o_0" departPos="5.10" departPosLat="0.00" departSpeed="0.00" departDelay="0.00" arrival="220.00" arrivalLane="51i_0" arrivalPos="10.00" arrivalPosLat="0.00" arrivalSpeed="11.67" duration="80.00" routeLength="1015.10" waitSteps="0" timeLoss="8.73" rerouteNo="0" devices="tripinfo_138" vType="type3" speedFactor="1.00" vaporized=""/>
    <tripinfo id="104" depart="121.00" departLane="52o_0" departPos="10.00" departPosLat="0.00" departSpeed="0.00" departDelay="16.00" arrival="221.00" arrivalLane="53i_0" arrivalPos="10.00" arrivalPosLat="0.00" arrivalSpeed="11.58" duration="100.00" routeLength="992.50" waitSteps="0" timeLoss="30.16" rerouteNo="0" devices="tripinfo_104" vType="type6" speedFactor="1.00" vaporized=""/>
    <tripinfo id="127" depart="134.00" departLane="52o_0" departPos="2.30" departPosLat="0.00" departSpeed="0.00" departDelay="4.00" arrival="224.00" arrivalLane="54i_0" arrivalPos="10.00" arrivalPosLat="0.00" arrivalSpeed="13.99" duration="90.00" routeLength="1016.17" waitSteps="0" timeLoss="18.02" rerouteNo="0" devices="tripinfo_127" vType="type2" speedFactor="1.00" vaporized=""/>
    <tripinfo id="139" depart="143.00" departLane="52o_0" departPos="5.10" departPosLat="0.00" departSpeed="0.00" departDelay="3.00" arrival="224.00" arrivalLane="54i_1" arrivalPos="10.00" arrivalPosLat="-1.20" arrivalSpeed="12.13" duration="81.00" routeLength="1013.37" waitSteps="0" timeLoss="9.48" rerouteNo="0" devices="tripinfo_139" vType="type3" speedFactor="1.00" vaporized=""/>
    <tripinfo id="128" depart="136.00" departLane="52o_0" departPos="2.30" departPosLat="0.00" departSpeed="0.00" departDelay="6.00" arrival="228.00" arrivalLane="53i_0" arrivalPos="10.00" arrivalPosLat="0.00" arrivalSpeed="14.58" duration="92.00" routeLength="1000.20" waitSteps="0" timeLoss="20.62" rerouteNo="0" devices="tripinfo_128" vType="type2" speedFactor="1.00" vaporized=""/>
    <tripinfo id="75" depart="80.00" departLane="54o_0" departPos="5.10" departPosLat="0.00" departSpeed="0.00" departDelay="0.00" arrival="236.00" arrivalLane="53i_0" arrivalPos="10.00" arrivalPosLat="0.00" arrivalSpeed="12.30" duration="156.00" routeLength="1015.10" waitSteps="68" timeLoss="83.83" rerouteNo="0" devices="tripinfo_75" vType="type3" speedFactor="1.00" vaporized=""/>
    <tripinfo id="76" depart="83.00" departLane="54o_0" departPos="5.10" departPosLat="0.00" departSpeed="0.00" departDelay="3.00" arrival="237.00" arrivalLane="51i_0" arrivalPos="10.00" arrivalPosLat="0.00" arrivalSpeed="12.01" duration="154.00" routeLength="1013.37" waitSteps="68" timeLoss="82.69" rerouteNo="0" devices="tripinfo_76" vType="type3" speedFactor="1.00" vaporized=""/>
    <tripinfo id="63" depart="65.00" departLane="54o_0" departPos="2.30" departPosLat="0.00" departSpeed="0.00" departDelay="0.00" arrival="238.00" arrivalLane="53i_0" arrivalPos="10.00" arrivalPosLat="0.00" arrivalSpeed="12.69" duration="173.00" routeLength="1017.90" waitSteps="88" timeLoss="100.96" rerouteNo="0" devices="tripinfo_63" vType="type2" speedFactor="1.00" vaporized=""/>
    <tripinfo id="87" depart="90.00" departLane="54o_0" departPos="5.10" departPosLat="0.00" departSpeed="0.00" departDelay="0.00" arrival="240.00" arrivalLane="53i_1" arrivalPos="10.00" arrivalPosLat="0.00" arrivalSpeed="12.06" duration="150.00" routeLength="1015.10" waitSteps="61" timeLoss="78.13" rerouteNo="0" devices="tripinfo_87" vType="type4" speedFactor="1.00" vaporized=""/>
    <tripinfo id="135" depart="140.00" departLane="54o_0" departPos="5.10" departPosLat="0.00" departSpeed="0.00" departDelay="0.00" arrival="241.00" arrivalLane="53i_0" arrivalPos="10.00" arrivalPosLat="0.00" arrivalSpeed="13.07" duration="101.00" routeLength="1015.10" waitSteps="12" timeLoss="28.73" rerouteNo="0" devices="tripinfo_135" vType="type3" speedFactor="1.00" vaporized=""/>
    <tripinfo id="65" depart="70.00" departLane="54o_0" departPos="2.30" departPosLat="0.00" departSpeed="0.00" departDelay="0.00" arrival="241.00" arrivalLane="52i_0" arrivalPos="10.00" arrivalPosLat="0.00" arrivalSpeed="14.33" duration="171.00" routeLength="1000.20" waitSteps="76" timeLoss="100.30" rerouteNo="0" devices="tripinfo_65" vType="type2" speedFactor="1.00" vaporized=""/>
    <tripinfo id="64" depart="67.00" departLane="54o_0" departPos="2.30" departPosLat="0.00" departSpeed="0.00" departDelay="2.00" arrival="242.00" arrivalLane="51i_0" arrivalPos="10.00" arrivalPosLat="0.00" arrivalSpeed="12.61" duration="175.00" routeLength="1016.17" waitSteps="83" timeLoss="102.72" rerouteNo="0" devices="tripinfo_64" vType="type2" speedFactor="1.00" vaporized=""/>
    <tripinfo id="147" depart="150.00" departLane="54o_0" departPos="5.10" departPosLat="0.00" departSpeed="0.00" departDelay="0.00" arrival="242.00" arrivalLane="53i_1" arrivalPos="10.00" arrivalPosLat="0.00" arrivalSpeed="12.78" duration="92.00" routeLength="1015.10" waitSteps="0" timeLoss="20.29" rerouteNo="0" devices="tripinfo_147" vType="type4" speedFactor="1.00" vaporized=""/>
    <tripinfo id="88" depart="93.00" departLane="54o_0" departPos="5.10" departPosLat="0.00" departSpeed="0.00" departDelay="3.00" arrival="242.00" arrivalLane="51i_1" arrivalPos="10.00" arrivalPosLat="0.00" arrivalSpeed="11.73" duration="149.00" routeLength="1013.37" waitSteps="60" timeLoss="77.71" rerouteNo="0" devices="tripinfo_88" vType="type4" speedFactor="1.00" vaporized=""/>
    <tripinfo id="123" depart="125.00" departLane="54o_0" departPos="2.30" departPosLat="0.00" departSpeed="0.00" departDelay="0.00" arrival="243.00" arrivalLane="53i_0" arrivalPos="10.00" arrivalPosLat="0.00" arrivalSpeed="15.39" duration="118.00" routeLength="1017.90" waitSteps="26" timeLoss="45.76" rerouteNo="0" devices="tripinfo_123" vType="type2" speedFactor="1.00" vaporized=""/>
    <tripinfo id="77" depart="86.00" departLane="54o_0" departPos="5.10" departPosLat="0.00" departSpeed="0.00" departDelay="6.00" arrival="243.00" arrivalLane="52i_0" arrivalPos="10.00" arrivalPosLat="0.00" arrivalSpeed="12.75" duration="157.00" routeLength="997.40" waitSteps="26" timeLoss="86.43" rerouteNo="0" devices="tripinfo_77" vType="type3" speedFactor="1.00" vaporized=""/>
    <tripinfo id="159" depart="160.00" departLane="54o_0" departPos="7.20" departPosLat="0.00" departSpeed="0.00" departDelay="0.00" arrival="244.00" arrivalLane="53i_1" arrivalPos="10.00" arrivalPosLat="0.00" arrivalSpeed="11.76" duration="84.00" routeLength="1013.00" waitSteps="0" timeLoss="12.62" rerouteNo="0" devices="tripinfo_159" vType="type5" speedFactor="1.00" vaporized=""/>