<?xml version="1.0" encoding="UTF-8"?>

<!-- generated on Sunday 03 February 2019 03:12:31 PM IST by SUMO gui Version 0.32.0
<?xml version="1.0" encoding="UTF-8"?>

<configuration xmlns:xsi="http://www.w3.org/2001/XMLSchema-instance" xsi:noNamespaceSchemaLocation="http://sumo.dlr.de/xsd/sumoConfiguration.xsd">

    <input>
        <net-file value="data/cross_2lanes.net.xml"/>
        <route-files value="data/obsatcle_1mins.rou.xml"/>
        <additional-files value="data/cross.det.xml"/>
    </input>

    <output>
        <tripinfo-output value="tripinfo.xml"/>
    </output>

    <time>
        <begin value="0"/>
    </time>

    <processing>
        <lateral-resolution value="0.64"/>
        <waiting-time-memory value="60"/>
    </processing>

    <report>
        <verbose value="true"/>
        <no-step-log value="true"/>
    </report>

    <traci_server>
        <remote-port value="51263"/>
    </traci_server>

</configuration>
-->

<tripinfos xmlns:xsi="http://www.w3.org/2001/XMLSchema-instance" xsi:noNamespaceSchemaLocation="http://sumo.dlr.de/xsd/tripinfo_file.xsd">
    <tripinfo id="2" depart="5.00" departLane="54o_0" departPos="2.30" departPosLat="0.00" departSpeed="0.00" departDelay="0.00" arrival="110.00" arrivalLane="51i_0" arrivalPos="10.00" arrivalPosLat="0.00" arrivalSpeed="10.80" duration="105.00" routeLength="1016.17" waitSteps="19" timeLoss="33.40" rerouteNo="0" devices="tripinfo_2" vType="type2" speedFactor="1.00" vaporized=""/>
    <tripinfo id="4" depart="7.00" departLane="54o_0" departPos="2.30" departPosLat="0.00" departSpeed="0.00" departDelay="2.00" arrival="112.00" arrivalLane="51i_0" arrivalPos="10.00" arrivalPosLat="0.00" arrivalSpeed="16.16" duration="105.00" routeLength="1016.17" waitSteps="17" timeLoss="33.36" rerouteNo="0" devices="tripinfo_4" vType="type2" speedFactor="1.00" vaporized=""/>
    <tripinfo id="6" depart="10.00" departLane="54o_0" departPos="2.30" departPosLat="0.00" departSpeed="0.00" departDelay="0.00" arrival="115.00" arrivalLane="51i_0" arrivalPos="10.00" arrivalPosLat="0.00" arrivalSpeed="12.09" duration="105.00" routeLength="1016.17" waitSteps="16" timeLoss="32.73" rerouteNo="0" devices="tripinfo_6" vType="type2" speedFactor="1.00" vaporized=""/>
    <tripinfo id="8" depart="11.00" departLane="54o_0" departPos="2.30" departPosLat="0.00" departSpeed="0.00" departDelay="1.00" arrival="116.00" arrivalLane="51i_1" arrivalPos="10.00" arrivalPosLat="0.00" arrivalSpeed="13.85" duration="105.00" routeLength="1016.17" waitSteps="15" timeLoss="32.89" rerouteNo="0" devices="tripinfo_8" vType="type2" speedFactor="1.00" vaporized=""/>
    <tripinfo id="10" depart="15.00" departLane="54o_0" departPos="5.10" departPosLat="0.00" departSpeed="0.00" departDelay="0.00" arrival="117.00" arrivalLane="51i_0" arrivalPos="10.00" arrivalPosLat="0.00" arrivalSpeed="10.80" duration="102.00" routeLength="1013.37" waitSteps="12" timeLoss="30.45" rerouteNo="0" devices="tripinfo_10" vType="type3" speedFactor="1.00" vaporized=""/>
    <tripinfo id="12" depart="18.00" departLane="54o_0" departPos="5.10" departPosLat="0.00" departSpeed="0.00" departDelay="3.00" arrival="119.00" arrivalLane="51i_0" arrivalPos="10.00" arrivalPosLat="-0.54" arrivalSpeed="11.10" duration="101.00" routeLength="1013.37" waitSteps="9" timeLoss="29.34" rerouteNo="0" devices="tripinfo_12" vType="type3" speedFactor="1.00" vaporized=""/>
    <tripinfo id="14" depart="21.00" departLane="54o_0" departPos="5.10" departPosLat="0.00" departSpeed="0.00" departDelay="6.00" arrival="119.00" arrivalLane="51i_1" arrivalPos="10.00" arrivalPosLat="-0.74" arrivalSpeed="12.99" duration="98.00" routeLength="1013.37" waitSteps="7" timeLoss="25.94" rerouteNo="0" devices="tripinfo_14" vType="type3" speedFactor="1.00" vaporized=""/>
    <tripinfo id="16" depart="24.00" departLane="54o_0" departPos="5.10" departPosLat="0.00" departSpeed="0.00" departDelay="4.00" arrival="121.00" arrivalLane="51i_1" arrivalPos="10.00" arrivalPosLat="-1.20" arrivalSpeed="13.11" duration="97.00" routeLength="1013.37" waitSteps="6" timeLoss="25.42" rerouteNo="0" devices="tripinfo_16" vType="type3" speedFactor="1.00" vaporized=""/>
    <tripinfo id="18" depart="27.00" departLane="54o_0" departPos="5.10" departPosLat="0.00" departSpeed="0.00" departDelay="7.00" arrival="123.00" arrivalLane="51i_0" arrivalPos="10.00" arrivalPosLat="0.00" arrivalSpeed="13.31" duration="96.00" routeLength="1013.37" waitSteps="4" timeLoss="23.96" rerouteNo="0" devices="tripinfo_18" vType="type3" speedFactor="1.00" vaporized=""/>
    <tripinfo id="20" depart="30.00" departLane="54o_0" departPos="5.10" departPosLat="0.00" departSpeed="0.00" departDelay="5.00" arrival="125.00" arrivalLane="51i_0" arrivalPos="10.00" arrivalPosLat="0.00" arrivalSpeed="11.55" duration="95.00" routeLength="1013.37" waitSteps="3" timeLoss="23.55" rerouteNo="0" devices="tripinfo_20" vType="type4" speedFactor="1.00" vaporized=""/>
    <tripinfo id="22" depart="33.00" departLane="54o_0" departPos="5.10" departPosLat="0.00" departSpeed="0.00" departDelay="8.00" arrival="127.00" arrivalLane="51i_0" arrivalPos="10.00" arrivalPosLat="1.00" arrivalSpeed="12.52" duration="94.00" routeLength="1013.37" waitSteps="0" timeLoss="22.45" rerouteNo="0" devices="tripinfo_22" vType="type4" speedFactor="1.00" vaporized=""/>
    <tripinfo id="24" depart="36.00" departLane="54o_0" departPos="5.10" departPosLat="0.00" departSpeed="0.00" departDelay="11.00" arrival="129.00" arrivalLane="51i_0" arrivalPos="10.00" arrivalPosLat="0.00" arrivalSpeed="12.48" duration="93.00" routeLength="1013.37" waitSteps="0" timeLoss="21.55" rerouteNo="0" devices="tripinfo_24" vType="type4" speedFactor="1.00" vaporized=""/>
    <tripinfo id="26" depart="39.00" departLane="54o_0" departPos="5.10" departPosLat="0.00" departSpeed="0.00" departDelay="9.00" arrival="131.00" arrivalLane="51i_0" arrivalPos="10.00" arrivalPosLat="1.00" arrivalSpeed="12.33" duration="92.00" routeLength="1013.37" waitSteps="0" timeLoss="20.35" rerouteNo="0" devices="tripinfo_26" vType="type4" speedFactor="1.00" vaporized=""/>
    <tripinfo id="28" depart="42.00" departLane="54o_0" departPos="5.10" departPosLat="0.00" departSpeed="0.00" departDelay="12.00" arrival="133.00" arrivalLane="51i_0" arrivalPos="10.00" arrivalPosLat="0.00" arrivalSpeed="12.07" duration="91.00" routeLength="1013.37" waitSteps="0" timeLoss="19.35" rerouteNo="0" devices="tripinfo_28" vType="type4" speedFactor="1.00" vaporized=""/>
    <tripinfo id="30" depart="45.00" departLane="54o_0" departPos="7.20" departPosLat="0.00" departSpeed="0.00" departDelay="10.00" arrival="135.00" arrivalLane="51i_0" arrivalPos="10.00" arrivalPosLat="-0.20" arrivalSpeed="10.21" duration="90.00" routeLength="1011.27" waitSteps="0" timeLoss="18.70" rerouteNo="0" devices="tripinfo_30" vType="type5" speedFactor="1.00" vaporized=""/>
    <tripinfo id="32" depart="49.00" departLane="54o_0" departPos="7.20" departPosLat="0.00" departSpeed="0.00" departDelay="14.00" arrival="135.00" arrivalLane="51i_1" arrivalPos="10.00" arrivalPosLat="0.00" arrivalSpeed="12.08" duration="86.00" routeLength="1011.27" waitSteps="0" timeLoss="14.32" rerouteNo="0" devices="tripinfo_32" vType="type5" speedFactor="1.00" vaporized=""/>
    <tripinfo id="3" depart="8.00" departLane="51o_0" departPos="2.30" departPosLat="0.00" departSpeed="0.00" departDelay="3.00" arrival="142.00" arrivalLane="52i_1" arrivalPos="10.00" arrivalPosLat="-0.09" arrivalSpeed="13.25" duration="134.00" routeLength="1017.90" waitSteps="47" timeLoss="61.48" rerouteNo="0" devices="tripinfo_3" vType="type2" speedFactor="1.00" vaporized=""/>
    <tripinfo id="7" depart="12.00" departLane="51o_0" departPos="2.30" departPosLat="0.00" departSpeed="0.00" departDelay="2.00" arrival="142.00" arrivalLane="52i_1" arrivalPos="10.00" arrivalPosLat="1.41" arrivalSpeed="13.73" duration="130.00" routeLength="1017.90" waitSteps="39" timeLoss="57.81" rerouteNo="0" devices="tripinfo_7" vType="type2" speedFactor="1.00" vaporized=""/>
    <tripinfo id="1" depart="7.00" departLane="51o_0" departPos="2.30" departPosLat="0.00" departSpeed="0.00" departDelay="2.00" arrival="142.00" arrivalLane="52i_0" arrivalPos="10.00" arrivalPosLat="0.00" arrivalSpeed="15.29" duration="135.00" routeLength="1017.90" waitSteps="49" timeLoss="62.69" rerouteNo="0" devices="tripinfo_1" vType="type2" speedFactor="1.00" vaporized=""/>
    <tripinfo id="5" depart="10.00" departLane="51o_0" departPos="2.30" departPosLat="0.00" departSpeed="0.00" departDelay="0.00" arrival="142.00" arrivalLane="52i_0" arrivalPos="10.00" arrivalPosLat="1.60" arrivalSpeed="13.11" duration="132.00" routeLength="1017.90" waitSteps="43" timeLoss="60.09" rerouteNo="0" devices="tripinfo_5" vType="type2" speedFactor="1.00" vaporized=""/>
    <tripinfo id="9" depart="13.00" departLane="51o_0" departPos="2.30" departPosLat="0.00" departSpeed="0.00" departDelay="3.00" arrival="143.00" arrivalLane="52i_2" arrivalPos="10.00" arrivalPosLat="0.00" arrivalSpeed="11.85" duration="130.00" routeLength="1017.90" waitSteps="35" timeLoss="58.35" rerouteNo="0" devices="tripinfo_9" vType="type2" speedFactor="1.00" vaporized=""/>
    <tripinfo id="31" depart="46.00" departLane="51o_0" departPos="7.20" departPosLat="0.00" departSpeed="0.00" departDelay="11.00" arrival="144.00" arrivalLane="52i_1" arrivalPos="10.00" arrivalPosLat="0.00" arrivalSpeed="11.50" duration="98.00" routeLength="1013.00" waitSteps="5" timeLoss="26.81" rerouteNo="0" devices="tripinfo_31" vType="type5" speedFactor="1.00" vaporized=""/>
    <tripinfo id="11" depart="16.00" departLane="51o_0" departPos="5.10" departPosLat="0.00" departSpeed="0.00" departDelay="1.00" arrival="144.00" arrivalLane="52i_0" arrivalPos="10.00" arrivalPosLat="0.00" arrivalSpeed="12.68" duration="128.00" routeLength="1015.10" waitSteps="37" timeLoss="56.29" rerouteNo="0" devices="tripinfo_11" vType="type3" speedFactor="1.00" vaporized=""/>
    <tripinfo id="33" depart="50.00" departLane="51o_0" departPos="7.20" departPosLat="0.00" departSpeed="0.00" departDelay="15.00" arrival="145.00" arrivalLane="52i_2" arrivalPos="10.00" arrivalPosLat="0.00" arrivalSpeed="11.00" duration="95.00" routeLength="1013.00" waitSteps="0" timeLoss="23.58" rerouteNo="0" devices="tripinfo_33" vType="type5" speedFactor="1.00" vaporized=""/>
    <tripinfo id="13" depart="19.00" departLane="51o_0" departPos="5.10" departPosLat="0.00" departSpeed="0.00" departDelay="4.00" arrival="146.00" arrivalLane="52i_0" arrivalPos="10.00" arrivalPosLat="0.00" arrivalSpeed="12.04" duration="127.00" routeLength="1015.10" waitSteps="37" timeLoss="55.37" rerouteNo="0" devices="tripinfo_13" vType="type3" speedFactor="1.00" vaporized=""/>
    <tripinfo id="15" depart="22.00" departLane="51o_0" departPos="5.10" departPosLat="0.00" departSpeed="0.00" departDelay="2.00" arrival="147.00" arrivalLane="52i_1" arrivalPos="10.00" arrivalPosLat="0.00" arrivalSpeed="11.89" duration="125.00" routeLength="1015.10" waitSteps="30" timeLoss="53.70" rerouteNo="0" devices="tripinfo_15" vType="type3" speedFactor="1.00" vaporized=""/>
    <tripinfo id="35" depart="55.00" departLane="51o_0" departPos="7.20" departPosLat="0.00" departSpeed="0.00" departDelay="15.00" arrival="148.00" arrivalLane="52i_0" arrivalPos="10.00" arrivalPosLat="0.00" arrivalSpeed="10.86" duration="93.00" routeLength="1013.00" waitSteps="0" timeLoss="21.72" rerouteNo="0" devices="tripinfo_35" vType="type5" speedFactor="1.00" vaporized=""/>
    <tripinfo id="0" depart="5.00" departLane="51o_0" departPos="2.30" departPosLat="0.00" departSpeed="0.00" departDelay="0.00" arrival="148.00" arrivalLane="52i_2" arrivalPos="10.00" arrivalPosLat="-1.19" arrivalSpeed="14.76" duration="143.00" routeLength="1017.90" waitSteps="1" timeLoss="20.16" rerouteNo="0" devices="tripinfo_0" vType="type2" speedFactor="1.00" vaporized=""/>
    <tripinfo id="19" depart="28.00" departLane="51o_0" departPos="5.10" departPosLat="0.00" departSpeed="0.00" departDelay="8.00" arrival="149.00" arrivalLane="52i_1" arrivalPos="10.00" arrivalPosLat="0.00" arrivalSpeed="12.67" duration="121.00" routeLength="1015.10" waitSteps="24" timeLoss="49.34" rerouteNo="0" devices="tripinfo_19" vType="type3" speedFactor="1.00" vaporized=""/>
    <tripinfo id="37" depart="59.00" departLane="51o_0" departPos="7.20" departPosLat="0.00" departSpeed="0.00" departDelay="19.00" arrival="150.00" arrivalLane="52i_0" arrivalPos="10.00" arrivalPosLat="0.00" arrivalSpeed="11.81" duration="91.00" routeLength="1013.00" waitSteps="1" timeLoss="19.70" rerouteNo="0" devices="tripinfo_37" vType="type5" speedFactor="1.00" vaporized=""/>
    <tripinfo id="17" depart="25.00" departLane="51o_0" departPos="5.10" departPosLat="0.00" departSpeed="0.00" departDelay="5.00" arrival="150.00" arrivalLane="52i_2" arrivalPos="10.00" arrivalPosLat="0.58" arrivalSpeed="10.44" duration="125.00" routeLength="1015.10" waitSteps="27" timeLoss="53.32" rerouteNo="0" devices="tripinfo_17" vType="type3" speedFactor="1.00" vaporized=""/>
    <tripinfo id="27" depart="40.00" departLane="51o_0" departPos="5.10" departPosLat="0.00" departSpeed="0.00" departDelay="10.00" arrival="152.00" arrivalLane="52i_1" arrivalPos="10.00" arrivalPosLat="-0.54" arrivalSpeed="11.78" duration="112.00" routeLength="1015.10" waitSteps="18" timeLoss="40.42" rerouteNo="0" devices="tripinfo_27" vType="type4" speedFactor="1.00" vaporized=""/>
    <tripinfo id="39" depart="64.00" departLane="51o_0" departPos="7.20" departPosLat="0.00" departSpeed="0.00" departDelay="24.00" arrival="152.00" arrivalLane="52i_0" arrivalPos="10.00" arrivalPosLat="-0.20" arrivalSpeed="11.61" duration="88.00" routeLength="1013.00" waitSteps="0" timeLoss="16.93" rerouteNo="0" devices="tripinfo_39" vType="type5" speedFactor="1.00" vaporized=""/>
    <tripinfo id="21" depart="31.00" departLane="51o_0" departPos="5.10" departPosLat="0.00" departSpeed="0.00" departDelay="6.00" arrival="152.00" arrivalLane="52i_2" arrivalPos="10.00" arrivalPosLat="-1.00" arrivalSpeed="12.58" duration="121.00" routeLength="1015.10" waitSteps="24" timeLoss="49.19" rerouteNo="0" devices="tripinfo_21" vType="type4" speedFactor="1.00" vaporized=""/>
    <tripinfo id="41" depart="69.00" departLane="51o_0" departPos="10.00" departPosLat="0.00" departSpeed="0.00" departDelay="24.00" arrival="154.00" arrivalLane="52i_0" arrivalPos="10.00" arrivalPosLat="-0.25" arrivalSpeed="11.90" duration="85.00" routeLength="1010.20" waitSteps="0" timeLoss="13.97" rerouteNo="0" devices="tripinfo_41" vType="type6" speedFactor="1.00" vaporized=""/>
    <tripinfo id="23" depart="34.00" departLane="51o_0" departPos="5.10" departPosLat="0.00" departSpeed="0.00" departDelay="9.00" arrival="154.00" arrivalLane="52i_2" arrivalPos="10.00" arrivalPosLat="-0.74" arrivalSpeed="12.18" duration="120.00" routeLength="1015.10" waitSteps="21" timeLoss="48.45" rerouteNo="0" devices="tripinfo_23" vType="type4" speedFactor="1.00" vaporized=""/>
    <tripinfo id="29" depart="43.00" departLane="51o_0" departPos="5.10" departPosLat="0.00" departSpeed="0.00" departDelay="13.00" arrival="155.00" arrivalLane="52i_1" arrivalPos="10.00" arrivalPosLat="-1.54" arrivalSpeed="12.50" duration="112.00" routeLength="1015.10" waitSteps="16" timeLoss="39.96" rerouteNo="0" devices="tripinfo_29" vType="type4" speedFactor="1.00" vaporized=""/>
    <tripinfo id="25" depart="37.00" departLane="51o_0" departPos="5.10" departPosLat="0.00" departSpeed="0.00" departDelay="7.00" arrival="157.00" arrivalLane="52i_1" arrivalPos="10.00" arrivalPosLat="0.00" arrivalSpeed="7.30" duration="120.00" routeLength="1015.10" waitSteps="20" timeLoss="48.27" rerouteNo="0" devices="tripinfo_25" vType="type4" speedFactor="1.00" vaporized=""/>
    <tripinfo id="43" depart="75.00" departLane="51o_0" departPos="10.00" departPosLat="0.00" departSpeed="0.00" departDelay="30.00" arrival="158.00" arrivalLane="52i_0" arrivalPos="10.00" arrivalPosLat="0.00" arrivalSpeed="11.49" duration="83.00" routeLength="1010.20" waitSteps="0" timeLoss="11.83" rerouteNo="0" devices="tripinfo_43" vType="type6" speedFactor="1.00" vaporized=""/>
    <tripinfo id="45" depart="80.00" departLane="51o_0" departPos="10.00" departPosLat="0.00" departSpeed="0.00" departDelay="30.00" arrival="164.00" arrivalLane="52i_0" arrivalPos="10.00" arrivalPosLat="0.00" arrivalSpeed="11.66" duration="84.00" routeLength="1010.20" waitSteps="0" timeLoss="12.83" rerouteNo="0" devices="tripinfo_45" vType="type6" speedFactor="1.00" vaporized=""/>
    <tripinfo id="47" depart="86.00" departLane="51o_0" departPos="10.00" departPosLat="0.00" departSpeed="0.00" departDelay="36.00" arrival="171.00" arrivalLane="52i_0" arrivalPos="10.00" arrivalPosLat="0.00" arrivalSpeed="11.99" duration="85.00" routeLength="1010.20" waitSteps="0" timeLoss="13.10" rerouteNo="0" devices="tripinfo_47" vType="type6" speedFactor="1.00" vaporized=""/>
    <tripinfo id="49" depart="92.00" departLane="51o_0" departPos="10.00" departPosLat="0.00" departSpeed="0.00" departDelay="42.00" arrival="176.00" arrivalLane="52i_0" arrivalPos="10.00" arrivalPosLat="0.00" arrivalSpeed="11.61" duration="84.00" routeLength="1010.20" waitSteps="0" timeLoss="12.51" rerouteNo="0" devices="tripinfo_49" vType="type6" speedFactor="1.00" vaporized=""/>
    <tripinfo id="34" depart="54.00" departLane="54o_0" departPos="7.20" departPosLat="0.00" departSpeed="0.00" departDelay="19.00" arrival="237.00" arrivalLane="51i_0" arrivalPos="10.00" arrivalPosLat="0.00" arrivalSpeed="11.61" duration="183.00" routeLength="1011.27" waitSteps="93" timeLoss="111.76" rerouteNo="0" devices="tripinfo_34" vType="type5" speedFactor="1.00" vaporized=""/>
    <tripinfo id="36" depart="58.00" departLane="54o_0" departPos="7.20" departPosLat="0.00" departSpeed="0.00" departDelay="18.00" arrival="240.00" arrivalLane="51i_0" arrivalPos="10.00" arrivalPosLat="0.00" arrivalSpeed="11.83" duration="182.00" routeLength="1011.27" waitSteps="88" timeLoss="110.28" rerouteNo="0" devices="tripinfo_36" vType="type5" speedFactor="1.00" vaporized=""/>
    <tripinfo id="38" depart="62.00" departLane="54o_0" departPos="7.20" departPosLat="0.00" departSpeed="0.00" departDelay="22.00" arrival="242.00" arrivalLane="51i_0" arrivalPos="10.00" arrivalPosLat="0.00" arrivalSpeed="9.83" duration="180.00" routeLength="1011.27" waitSteps="87" timeLoss="108.69" rerouteNo="0" devices="tripinfo_38" vType="type5" speedFactor="1.00" vaporized=""/>
    <tripinfo id="40" depart="67.00" departLane="54o_0" departPos="10.00" departPosLat="0.00" departSpeed="0.00" departDelay="22.00" arrival="244.00" arrivalLane="51i_0" arrivalPos="10.00" arrivalPosLat="0.00" arrivalSpeed="10.90" duration="177.00" routeLength="1008.47" waitSteps="83" timeLoss="105.93" rerouteNo="0" devices="tripinfo_40" vType="type6" speedFactor="1.00" vaporized=""/>
    <tripinfo id="42" depart="73.00" departLane="54o_0" departPos="10.00" departPosLat="0.00" departSpeed="0.00" departDelay="28.00" arrival="247.00" arrivalLane="51i_0" arrivalPos="10.00" arrivalPosLat="0.00" arrivalSpeed="11.44" duration="174.00" routeLength="1008.47" waitSteps="77" timeLoss="102.59" rerouteNo="0" devices="tripinfo_42" vType="type6" speedFactor="1.00" vaporized=""/>
    <tripinfo id="44" depart="79.00" departLane="54o_0" departPos="10.00" departPosLat="0.00" departSpeed="0.00" departDelay="34.00" arrival="249.00" arrivalLane="51i_0" arrivalPos="10.00" arrivalPosLat="0.00" arrivalSpeed="11.80" duration="170.00" routeLength="1008.47" waitSteps="75" timeLoss="99.10" rerouteNo="0" devices="tripinfo_44" vType="type6" speedFactor="1.00" vaporized=""/>
    <tripinfo id="46" depart="84.00" departLane="54o_0" departPos="10.00" departPosLat="0.00" departSpeed="0.00" departDelay="34.00" arrival="252.00" arrivalLane="51i_0" arrivalPos="10.00" arrivalPosLat="0.00" arrivalSpeed="11.38" duration="168.00" routeLength="1008.47" waitSteps="71" timeLoss="96.97" rerouteNo="0" devices="tripinfo_46" vType="type6" speedFactor="1.00" vaporized=""/>
    <tripinfo id="48" depart="90.00" departLane="54o_0" departPos="10.00" departPosLat="0.00" departSpeed="0.00" departDelay="40.00" arrival="255.00" arrivalLane="51i_0" arrivalPos="10.00" arrivalPosLat="0.00" arrivalSpeed="11.74" duration="165.00" routeLength="1008.47" waitSteps="67" timeLoss="93.51" rerouteNo="0" devices="tripinfo_48" vType="type6" speedFactor="1.00" vaporized=""/>
    <tripinfo id="60" depart="107.00" departLane="54o_0" departPos="2.30" departPosLat="0.00" departSpeed="0.00" departDelay="42.00" arrival="262.00" arrivalLane="51i_0" arrivalPos="10.00" arrivalPosLat="0.00" arrivalSpeed="14.14" duration="155.00" routeLength="1016.17" waitSteps="59" timeLoss="82.98" rerouteNo="0" devices="tripinfo_60" vType="type2" speedFactor="1.00" vaporized=""/>
    <tripinfo id="62" depart="109.00" departLane="54o_0" departPos="2.30" departPosLat="0.00" departSpeed="0.00" departDelay="44.00" arrival="265.00" arrivalLane="51i_0" arrivalPos="10.00" arrivalPosLat="0.00" arrivalSpeed="15.77" duration="156.00" routeLength="1016.17" waitSteps="57" timeLoss="83.80" rerouteNo="0" devices="tripinfo_62" vType="type2" speedFactor="1.00" vaporized=""/>
    <tripinfo id="64" depart="111.00" departLane="54o_0" departPos="2.30" departPosLat="0.00" departSpeed="0.00" departDelay="46.00" arrival="267.00" arrivalLane="51i_0" arrivalPos="10.00" arrivalPosLat="0.00" arrivalSpeed="14.05" duration="156.00" routeLength="1016.17" waitSteps="55" timeLoss="84.16" rerouteNo="0" devices="tripinfo_64" vType="type2" speedFactor="1.00" vaporized=""/>
    <tripinfo id="68" depart="112.00" departLane="54o_0" departPos="2.30" departPosLat="0.00" departSpeed="0.00" departDelay="42.00" arrival="269.00" arrivalLane="51i_0" arrivalPos="10.00" arrivalPosLat="0.00" arrivalSpeed="13.80" duration="157.00" routeLength="1016.17" waitSteps="55" timeLoss="84.51" rerouteNo="0" devices="tripinfo_68" vType="type2" speedFactor="1.00" vaporized=""/>
    <tripinfo id="63" depart="110.00" departLane="51o_0" departPos="2.30" departPosLat="0.00" departSpeed="0.00" departDelay="45.00" arrival="270.00" arrivalLane="52i_1" arrivalPos="10.00" arrivalPosLat="0.64" arrivalSpeed="16.38" duration="160.00" routeLength="1017.90" waitSteps="73" timeLoss="87.81" rerouteNo="0" devices="tripinfo_63" vType="type2" speedFactor="1.00" vaporized=""/>
    <tripinfo id="65" depart="111.00" departLane="51o_0" departPos="2.30" departPosLat="0.00" departSpeed="0.00" departDelay="41.00" arrival="270.00" arrivalLane="52i_1" arrivalPos="10.00" arrivalPosLat="-1.28" arrivalSpeed="15.22" duration="159.00" routeLength="1017.90" waitSteps="70" timeLoss="86.84" rerouteNo="0" devices="tripinfo_65" vType="type2" speedFactor="1.00" vaporized=""/>
    <tripinfo id="69" depart="118.00" departLane="51o_0" departPos="2.30" departPosLat="0.00" departSpeed="0.00" departDelay="48.00" arrival="270.00" arrivalLane="52i_2" arrivalPos="10.00" arrivalPosLat="-0.55" arrivalSpeed="14.64" duration="152.00" routeLength="1017.90" waitSteps="65" timeLoss="80.00" rerouteNo="0" devices="tripinfo_69" vType="type2" speedFactor="1.00" vaporized=""/>
    <tripinfo id="61" depart="108.00" departLane="51o_0" departPos="2.30" departPosLat="0.00" departSpeed="0.00" departDelay="43.00" arrival="271.00" arrivalLane="52i_0" arrivalPos="10.00" arrivalPosLat="0.00" arrivalSpeed="16.57" duration="163.00" routeLength="1017.90" waitSteps="74" timeLoss="90.54" rerouteNo="0" devices="tripinfo_61" vType="type2" speedFactor="1.00" vaporized=""/>
    <tripinfo id="71" depart="120.00" departLane="51o_0" departPos="5.10" departPosLat="0.00" departSpeed="0.00" departDelay="45.00" arrival="272.00" arrivalLane="52i_2" arrivalPos="10.00" arrivalPosLat="0.00" arrivalSpeed="13.28" duration="152.00" routeLength="1015.10" waitSteps="60" timeLoss="80.33" rerouteNo="0" devices="tripinfo_71" vType="type3" speedFactor="1.00" vaporized=""/>
    <tripinfo id="67" depart="116.00" departLane="51o_0" departPos="2.30" departPosLat="0.00" departSpeed="0.00" departDelay="46.00" arrival="273.00" arrivalLane="52i_1" arrivalPos="10.00" arrivalPosLat="0.00" arrivalSpeed="13.78" duration="157.00" routeLength="1017.90" waitSteps="68" timeLoss="84.76" rerouteNo="0" devices="tripinfo_67" vType="type2" speedFactor="1.00" vaporized=""/>
    <tripinfo id="73" depart="122.00" departLane="51o_0" departPos="5.10" departPosLat="0.00" departSpeed="0.00" departDelay="47.00" arrival="273.00" arrivalLane="52i_0" arrivalPos="10.00" arrivalPosLat="0.00" arrivalSpeed="11.20" duration="151.00" routeLength="1015.10" waitSteps="60" timeLoss="79.18" rerouteNo="0" devices="tripinfo_73" vType="type3" speedFactor="1.00" vaporized=""/>
    <tripinfo id="91" depart="150.00" departLane="51o_0" departPos="7.20" departPosLat="0.00" departSpeed="0.00" departDelay="55.00" arrival="274.00" arrivalLane="52i_2" arrivalPos="10.00" arrivalPosLat="0.00" arrivalSpeed="10.99" duration="124.00" routeLength="1013.00" waitSteps="29" timeLoss="52.86" rerouteNo="0" devices="tripinfo_91" vType="type5" speedFactor="1.00" vaporized=""/>
    <tripinfo id="93" depart="155.00" departLane="51o_0" departPos="7.20" departPosLat="0.00" departSpeed="0.00" departDelay="60.00" arrival="275.00" arrivalLane="52i_1" arrivalPos="10.00" arrivalPosLat="-0.44" arrivalSpeed="11.39" duration="120.00" routeLength="1013.00" waitSteps="16" timeLoss="48.70" rerouteNo="0" devices="tripinfo_93" vType="type5" speedFactor="1.00" vaporized=""/>
    <tripinfo id="79" depart="132.00" departLane="51o_0" departPos="5.10" departPosLat="0.00" departSpeed="0.00" departDelay="52.00" arrival="276.00" arrivalLane="52i_1" arrivalPos="10.00" arrivalPosLat="1.46" arrivalSpeed="10.47" duration="144.00" routeLength="1015.10" waitSteps="49" timeLoss="72.40" rerouteNo="0" devices="tripinfo_79" vType="type3" speedFactor="1.00" vaporized=""/>
    <tripinfo id="66" depart="114.00" departLane="51o_0" departPos="2.30" departPosLat="0.00" departSpeed="0.00" departDelay="44.00" arrival="277.00" arrivalLane="52i_0" arrivalPos="10.00" arrivalPosLat="0.00" arrivalSpeed="12.24" duration="163.00" routeLength="1017.90" waitSteps="14" timeLoss="40.33" rerouteNo="0" devices="tripinfo_66" vType="type2" speedFactor="1.00" vaporized=""/>
    <tripinfo id="81" depart="135.00" departLane="51o_0" departPos="5.10" departPosLat="0.00" departSpeed="0.00" departDelay="50.00" arrival="278.00" arrivalLane="52i_1" arrivalPos="10.00" arrivalPosLat="0.00" arrivalSpeed="12.24" duration="143.00" routeLength="1015.10" waitSteps="45" timeLoss="71.37" rerouteNo="0" devices="tripinfo_81" vType="type4" speedFactor="1.00" vaporized=""/>
    <tripinfo id="83" depart="138.00" departLane="51o_0" departPos="5.10" departPosLat="0.00" departSpeed="0.00" departDelay="53.00" arrival="279.00" arrivalLane="52i_0" arrivalPos="10.00" arrivalPosLat="0.00" arrivalSpeed="10.54" duration="141.00" routeLength="1015.10" waitSteps="39" timeLoss="69.35" rerouteNo="0" devices="tripinfo_83" vType="type4" speedFactor="1.00" vaporized=""/>
    <tripinfo id="87" depart="144.00" departLane="51o_0" departPos="5.10" departPosLat="0.00" departSpeed="0.00" departDelay="54.00" arrival="280.00" arrivalLane="52i_1" arrivalPos="10.00" arrivalPosLat="0.00" arrivalSpeed="12.68" duration="136.00" routeLength="1015.10" waitSteps="34" timeLoss="64.15" rerouteNo="0" devices="tripinfo_87" vType="type4" speedFactor="1.00" vaporized=""/>
    <tripinfo id="85" depart="141.00" departLane="51o_0" departPos="5.10" departPosLat="0.00" departSpeed="0.00" departDelay="51.00" arrival="281.00" arrivalLane="52i_0" arrivalPos="10.00" arrivalPosLat="0.00" arrivalSpeed="13.41" duration="140.00" routeLength="1015.10" waitSteps="39" timeLoss="68.63" rerouteNo="0" devices="tripinfo_85" vType="type4" speedFactor="1.00" vaporized=""/>
    <tripinfo id="107" depart="193.00" departLane="51o_0" departPos="10.00" departPosLat="0.00" departSpeed="0.00" departDelay="83.00" arrival="282.00" arrivalLane="52i_1" arrivalPos="10.00" arrivalPosLat="1.00" arrivalSpeed="11.79" duration="89.00" routeLength="1010.20" waitSteps="0" timeLoss="20.54" rerouteNo="0" devices="tripinfo_107" vType="type6" speedFactor="1.00" vaporized=""/>
    <tripinfo id="77" depart="129.00" departLane="51o_0" departPos="5.10" departPosLat="0.00" departSpeed="0.00" departDelay="49.00" arrival="283.00" arrivalLane="52i_0" arrivalPos="10.00" arrivalPosLat="0.00" arrivalSpeed="11.36" duration="154.00" routeLength="1015.10" waitSteps="56" timeLoss="82.64" rerouteNo="0" devices="tripinfo_77" vType="type3" speedFactor="1.00" vaporized=""/>
    <tripinfo id="75" depart="126.00" departLane="51o_0" departPos="5.10" departPosLat="0.00" departSpeed="0.00" departDelay="46.00" arrival="285.00" arrivalLane="52i_0" arrivalPos="10.00" arrivalPosLat="0.00" arrivalSpeed="11.74" duration="159.00" routeLength="1015.10" waitSteps="59" timeLoss="87.49" rerouteNo="0" devices="tripinfo_75" vType="type3" speedFactor="1.00" vaporized=""/>
    <tripinfo id="51" depart="95.00" departLane="51o_0" departPos="1.70" departPosLat="0.00" departSpeed="0.00" departDelay="40.00" arrival="318.00" arrivalLane="52i_0" arrivalPos="10.00" arrivalPosLat="0.00" arrivalSpeed="4.98" duration="223.00" routeLength="1018.50" waitSteps="23" timeLoss="39.23" rerouteNo="0" devices="tripinfo_51" vType="type1" speedFactor="1.00" vaporized=""/>
    <tripinfo id="53" depart="97.00" departLane="51o_0" departPos="1.70" departPosLat="0.00" departSpeed="0.00" departDelay="42.00" arrival="320.00" arrivalLane="52i_1" arrivalPos="10.00" arrivalPosLat="0.00" arrivalSpeed="5.29" duration="223.00" routeLength="1018.50" waitSteps="21" timeLoss="39.42" rerouteNo="0" devices="tripinfo_53" vType="type1" speedFactor="1.00" vaporized=""/>
    <tripinfo id="55" depart="100.00" departLane="51o_0" departPos="1.70" departPosLat="0.00" departSpeed="0.00" departDelay="40.00" arrival="321.00" arrivalLane="52i_0" arrivalPos="10.00" arrivalPosLat="0.00" arrivalSpeed="5.54" duration="221.00" routeLength="1018.50" waitSteps="19" timeLoss="36.78" rerouteNo="0" devices="tripinfo_55" vType="type1" speedFactor="1.00" vaporized=""/>