<?xml version="1.0" encoding="UTF-8"?>

<!-- generated on Sunday 20 January 2019 01:05:23 PM IST by SUMO gui Version 0.32.0
<?xml version="1.0" encoding="UTF-8"?>

<configuration xmlns:xsi="http://www.w3.org/2001/XMLSchema-instance" xsi:noNamespaceSchemaLocation="http://sumo.dlr.de/xsd/sumoConfiguration.xsd">

    <input>
        <net-file value="data/cross_2intersections_debug.net.xml"/>
        <route-files value="data/cross_2intersections.rou.xml"/>
    </input>

    <output>
        <tripinfo-output value="tripinfo.xml"/>
    </output>

    <time>
        <begin value="0"/>
    </time>

    <processing>
        <lateral-resolution value="0.64"/>
    </processing>

    <report>
        <verbose value="true"/>
        <no-step-log value="true"/>
    </report>

    <gui_only>
        <start value="true"/>
    </gui_only>

</configuration>
-->

<tripinfos xmlns:xsi="http://www.w3.org/2001/XMLSchema-instance" xsi:noNamespaceSchemaLocation="http://sumo.dlr.de/xsd/tripinfo_file.xsd">
    <tripinfo id="15" depart="20.00" departLane="54o_0" departPos="5.10" departPosLat="0.00" departSpeed="0.00" departDelay="0.00" arrival="101.00" arrivalLane="51i_0" arrivalPos="10.00" arrivalPosLat="0.00" arrivalSpeed="12.73" duration="81.00" routeLength="1014.90" waitSteps="0" timeLoss="9.57" rerouteNo="0" devices="tripinfo_15" vType="type3" speedFactor="1.00" vaporized=""/>
    <tripinfo id="0" depart="5.00" departLane="51o_0" departPos="2.30" departPosLat="0.00" departSpeed="0.00" departDelay="0.00" arrival="108.00" arrivalLane="54i_0" arrivalPos="10.00" arrivalPosLat="0.00" arrivalSpeed="13.63" duration="103.00" routeLength="1017.70" waitSteps="16" timeLoss="30.55" rerouteNo="0" devices="tripinfo_0" vType="type2" speedFactor="1.00" vaporized=""/>
    <tripinfo id="16" depart="23.00" departLane="54o_0" departPos="5.10" departPosLat="0.00" departSpeed="0.00" departDelay="3.00" arrival="108.00" arrivalLane="53i_0" arrivalPos="20.20" arrivalPosLat="0.00" arrivalSpeed="14.66" duration="85.00" routeLength="1065.10" waitSteps="0" timeLoss="8.73" rerouteNo="0" devices="tripinfo_16" vType="type3" speedFactor="1.00" vaporized=""/>
    <tripinfo id="4" depart="12.00" departLane="51o_0" departPos="2.30" departPosLat="0.00" departSpeed="0.00" departDelay="7.00" arrival="115.00" arrivalLane="53i_0" arrivalPos="20.20" arrivalPosLat="0.00" arrivalSpeed="14.85" duration="103.00" routeLength="1067.90" waitSteps="10" timeLoss="27.13" rerouteNo="0" devices="tripinfo_4" vType="type2" speedFactor="1.00" vaporized=""/>
    <tripinfo id="1" depart="7.00" departLane="51o_0" departPos="2.30" departPosLat="0.00" departSpeed="0.00" departDelay="2.00" arrival="116.00" arrivalLane="154i_0" arrivalPos="10.00" arrivalPosLat="0.00" arrivalSpeed="13.84" duration="109.00" routeLength="1117.70" waitSteps="13" timeLoss="32.05" rerouteNo="0" devices="tripinfo_1" vType="type2" speedFactor="1.00" vaporized=""/>
    <tripinfo id="3" depart="10.00" departLane="51o_0" departPos="2.30" departPosLat="0.00" departSpeed="0.00" departDelay="5.00" arrival="121.00" arrivalLane="153i_0" arrivalPos="20.20" arrivalPosLat="0.00" arrivalSpeed="13.04" duration="111.00" routeLength="1167.90" waitSteps="12" timeLoss="29.82" rerouteNo="0" devices="tripinfo_3" vType="type2" speedFactor="1.00" vaporized=""/>
    <tripinfo id="10" depart="15.00" departLane="53o_0" departPos="5.10" departPosLat="0.00" departSpeed="0.00" departDelay="0.00" arrival="122.00" arrivalLane="51i_0" arrivalPos="10.00" arrivalPosLat="0.00" arrivalSpeed="12.24" duration="107.00" routeLength="1065.10" waitSteps="18" timeLoss="32.53" rerouteNo="0" devices="tripinfo_10" vType="type3" speedFactor="1.00" vaporized=""/>
    <tripinfo id="11" depart="18.00" departLane="53o_0" departPos="5.10" departPosLat="0.00" departSpeed="0.00" departDelay="3.00" arrival="123.00" arrivalLane="54i_0" arrivalPos="10.00" arrivalPosLat="0.00" arrivalSpeed="12.67" duration="105.00" routeLength="1065.10" waitSteps="16" timeLoss="29.77" rerouteNo="0" devices="tripinfo_11" vType="type3" speedFactor="1.00" vaporized=""/>
    <tripinfo id="12" depart="21.00" departLane="53o_0" departPos="5.10" departPosLat="0.00" departSpeed="0.00" departDelay="6.00" arrival="130.00" arrivalLane="154i_0" arrivalPos="10.00" arrivalPosLat="0.00" arrivalSpeed="12.22" duration="109.00" routeLength="1165.10" waitSteps="11" timeLoss="28.75" rerouteNo="0" devices="tripinfo_12" vType="type3" speedFactor="1.00" vaporized=""/>
    <tripinfo id="40" depart="45.00" departLane="53o_0" departPos="12.10" departPosLat="0.00" departSpeed="0.00" departDelay="0.00" arrival="131.00" arrivalLane="51i_0" arrivalPos="10.00" arrivalPosLat="0.00" arrivalSpeed="11.50" duration="86.00" routeLength="1058.10" waitSteps="0" timeLoss="11.78" rerouteNo="0" devices="tripinfo_40" vType="type6" speedFactor="1.00" vaporized=""/>
    <tripinfo id="13" depart="24.00" departLane="53o_0" departPos="5.10" departPosLat="0.00" departSpeed="0.00" departDelay="9.00" arrival="131.00" arrivalLane="52i_0" arrivalPos="10.00" arrivalPosLat="0.00" arrivalSpeed="12.32" duration="107.00" routeLength="1165.10" waitSteps="10" timeLoss="27.20" rerouteNo="0" devices="tripinfo_13" vType="type3" speedFactor="1.00" vaporized=""/>
    <tripinfo id="14" depart="27.00" departLane="53o_0" departPos="5.10" departPosLat="0.00" departSpeed="0.00" departDelay="12.00" arrival="139.00" arrivalLane="153i_0" arrivalPos="20.20" arrivalPosLat="0.00" arrivalSpeed="12.92" duration="112.00" routeLength="1215.30" waitSteps="9" timeLoss="27.82" rerouteNo="0" devices="tripinfo_14" vType="type3" speedFactor="1.00" vaporized=""/>
    <tripinfo id="2" depart="8.00" departLane="51o_0" departPos="2.30" departPosLat="0.00" departSpeed="0.00" departDelay="3.00" arrival="154.00" arrivalLane="2i_1" arrivalPos="500.00" arrivalPosLat="-1.28" arrivalSpeed="8.42" duration="146.00" routeLength="1607.70" waitSteps="18" timeLoss="43.28" rerouteNo="0" devices="tripinfo_2" vType="type2" speedFactor="1.00" vaporized=""/>
    <tripinfo id="21" depart="28.00" departLane="153o_0" departPos="5.10" departPosLat="0.00" departSpeed="0.00" departDelay="3.00" arrival="155.00" arrivalLane="154i_0" arrivalPos="10.00" arrivalPosLat="0.00" arrivalSpeed="12.93" duration="127.00" routeLength="1065.10" waitSteps="38" timeLoss="51.93" rerouteNo="0" devices="tripinfo_21" vType="type4" speedFactor="1.00" vaporized=""/>
    <tripinfo id="20" depart="25.00" departLane="153o_0" departPos="5.10" departPosLat="0.00" departSpeed="0.00" departDelay="0.00" arrival="155.00" arrivalLane="52i_0" arrivalPos="10.00" arrivalPosLat="0.00" arrivalSpeed="11.99" duration="130.00" routeLength="1065.10" waitSteps="42" timeLoss="55.02" rerouteNo="0" devices="tripinfo_20" vType="type4" speedFactor="1.00" vaporized=""/>
    <tripinfo id="45" depart="50.00" departLane="54o_0" departPos="10.00" departPosLat="0.00" departSpeed="0.00" departDelay="0.00" arrival="157.00" arrivalLane="51i_0" arrivalPos="10.00" arrivalPosLat="0.00" arrivalSpeed="11.39" duration="107.00" routeLength="1010.00" waitSteps="13" timeLoss="35.40" rerouteNo="0" devices="tripinfo_45" vType="type6" speedFactor="1.00" vaporized=""/>
    <tripinfo id="75" depart="80.00" departLane="54o_0" departPos="5.10" departPosLat="0.00" departSpeed="0.00" departDelay="0.00" arrival="161.00" arrivalLane="51i_0" arrivalPos="10.00" arrivalPosLat="0.00" arrivalSpeed="12.31" duration="81.00" routeLength="1014.90" waitSteps="0" timeLoss="9.09" rerouteNo="0" devices="tripinfo_75" vType="type3" speedFactor="1.00" vaporized=""/>
    <tripinfo id="46" depart="56.00" departLane="54o_0" departPos="10.00" departPosLat="0.00" departSpeed="0.00" departDelay="6.00" arrival="161.00" arrivalLane="53i_0" arrivalPos="20.20" arrivalPosLat="0.00" arrivalSpeed="11.85" duration="105.00" routeLength="1060.20" waitSteps="8" timeLoss="29.23" rerouteNo="0" devices="tripinfo_46" vType="type6" speedFactor="1.00" vaporized=""/>
    <tripinfo id="80" depart="85.00" departLane="153o_0" departPos="5.10" departPosLat="0.00" departSpeed="0.00" departDelay="0.00" arrival="169.00" arrivalLane="52i_0" arrivalPos="10.00" arrivalPosLat="0.00" arrivalSpeed="12.76" duration="84.00" routeLength="1065.10" waitSteps="0" timeLoss="9.05" rerouteNo="0" devices="tripinfo_80" vType="type4" speedFactor="1.00" vaporized=""/>
    <tripinfo id="76" depart="83.00" departLane="54o_0" departPos="5.10" departPosLat="0.00" departSpeed="0.00" departDelay="3.00" arrival="170.00" arrivalLane="53i_0" arrivalPos="20.20" arrivalPosLat="0.00" arrivalSpeed="13.53" duration="87.00" routeLength="1065.10" waitSteps="0" timeLoss="10.99" rerouteNo="0" devices="tripinfo_76" vType="type3" speedFactor="1.00" vaporized=""/>
    <tripinfo id="81" depart="88.00" departLane="153o_0" departPos="5.10" departPosLat="0.00" departSpeed="0.00" departDelay="3.00" arrival="171.00" arrivalLane="154i_0" arrivalPos="10.00" arrivalPosLat="0.00" arrivalSpeed="12.69" duration="83.00" routeLength="1065.10" waitSteps="0" timeLoss="8.59" rerouteNo="0" devices="tripinfo_81" vType="type4" speedFactor="1.00" vaporized=""/>
    <tripinfo id="105" depart="110.00" departLane="54o_0" departPos="10.00" departPosLat="0.00" departSpeed="0.00" departDelay="0.00" arrival="194.00" arrivalLane="51i_0" arrivalPos="10.00" arrivalPosLat="0.00" arrivalSpeed="11.88" duration="84.00" routeLength="1010.00" waitSteps="0" timeLoss="12.45" rerouteNo="0" devices="tripinfo_105" vType="type6" speedFactor="1.00" vaporized=""/>
    <tripinfo id="5" depart="10.00" departLane="52o_0" departPos="2.30" departPosLat="0.00" departSpeed="0.00" departDelay="0.00" arrival="205.00" arrivalLane="154i_0" arrivalPos="10.00" arrivalPosLat="0.00" arrivalSpeed="15.15" duration="195.00" routeLength="1017.70" waitSteps="108" timeLoss="123.05" rerouteNo="0" devices="tripinfo_5" vType="type2" speedFactor="1.00" vaporized=""/>
    <tripinfo id="106" depart="116.00" departLane="54o_0" departPos="10.00" departPosLat="0.00" departSpeed="0.00" departDelay="6.00" arrival="205.00" arrivalLane="53i_0" arrivalPos="20.20" arrivalPosLat="0.00" arrivalSpeed="12.45" duration="89.00" routeLength="1060.20" waitSteps="0" timeLoss="13.15" rerouteNo="0" devices="tripinfo_106" vType="type6" speedFactor="1.00" vaporized=""/>
    <tripinfo id="35" depart="40.00" departLane="52o_0" departPos="7.20" departPosLat="0.00" departSpeed="0.00" departDelay="0.00" arrival="206.00" arrivalLane="154i_1" arrivalPos="10.00" arrivalPosLat="-1.20" arrivalSpeed="11.32" duration="166.00" routeLength="1012.80" waitSteps="74" timeLoss="94.37" rerouteNo="0" devices="tripinfo_35" vType="type5" speedFactor="1.00" vaporized=""/>
    <tripinfo id="9" depart="17.00" departLane="52o_0" departPos="2.30" departPosLat="0.00" departSpeed="0.00" departDelay="7.00" arrival="211.00" arrivalLane="153i_0" arrivalPos="20.20" arrivalPosLat="0.00" arrivalSpeed="17.37" duration="194.00" routeLength="1067.90" waitSteps="101" timeLoss="117.42" rerouteNo="0" devices="tripinfo_9" vType="type2" speedFactor="1.00" vaporized=""/>
    <tripinfo id="95" depart="100.00" departLane="52o_0" departPos="7.20" departPosLat="0.00" departSpeed="0.00" departDelay="0.00" arrival="213.00" arrivalLane="154i_1" arrivalPos="10.00" arrivalPosLat="-1.44" arrivalSpeed="11.93" duration="113.00" routeLength="1012.80" waitSteps="15" timeLoss="41.40" rerouteNo="0" devices="tripinfo_95" vType="type5" speedFactor="1.00" vaporized=""/>
    <tripinfo id="65" depart="70.00" departLane="52o_0" departPos="2.30" departPosLat="0.00" departSpeed="0.00" departDelay="0.00" arrival="215.00" arrivalLane="154i_0" arrivalPos="10.00" arrivalPosLat="0.00" arrivalSpeed="14.09" duration="145.00" routeLength="1017.70" waitSteps="55" timeLoss="72.74" rerouteNo="0" devices="tripinfo_65" vType="type2" speedFactor="1.00" vaporized=""/>
    <tripinfo id="39" depart="58.00" departLane="52o_0" departPos="7.20" departPosLat="0.00" departSpeed="0.00" departDelay="18.00" arrival="218.00" arrivalLane="153i_0" arrivalPos="20.20" arrivalPosLat="0.00" arrivalSpeed="12.79" duration="160.00" routeLength="1063.00" waitSteps="60" timeLoss="83.97" rerouteNo="0" devices="tripinfo_39" vType="type5" speedFactor="1.00" vaporized=""/>
    <tripinfo id="30" depart="35.00" departLane="51o_0" departPos="7.20" departPosLat="0.00" departSpeed="0.00" departDelay="0.00" arrival="220.00" arrivalLane="54i_0" arrivalPos="10.00" arrivalPosLat="0.00" arrivalSpeed="11.89" duration="185.00" routeLength="1012.80" waitSteps="96" timeLoss="113.23" rerouteNo="0" devices="tripinfo_30" vType="type5" speedFactor="1.00" vaporized=""/>
    <tripinfo id="125" depart="130.00" departLane="52o_0" departPos="2.30" departPosLat="0.00" departSpeed="0.00" departDelay="0.00" arrival="223.00" arrivalLane="154i_0" arrivalPos="10.00" arrivalPosLat="0.00" arrivalSpeed="13.43" duration="93.00" routeLength="1017.70" waitSteps="0" timeLoss="20.34" rerouteNo="0" devices="tripinfo_125" vType="type2" speedFactor="1.00" vaporized=""/>
    <tripinfo id="99" depart="119.00" departLane="52o_0" departPos="7.20" departPosLat="0.00" departSpeed="0.00" departDelay="19.00" arrival="225.00" arrivalLane="153i_1" arrivalPos="20.20" arrivalPosLat="0.00" arrivalSpeed="12.46" duration="106.00" routeLength="1063.00" waitSteps="0" timeLoss="30.50" rerouteNo="0" devices="tripinfo_99" vType="type5" speedFactor="1.00" vaporized=""/>
    <tripinfo id="34" depart="53.00" departLane="51o_0" departPos="7.20" departPosLat="0.00" departSpeed="0.00" departDelay="18.00" arrival="226.00" arrivalLane="53i_0" arrivalPos="20.20" arrivalPosLat="0.00" arrivalSpeed="12.07" duration="173.00" routeLength="1063.00" waitSteps="76" timeLoss="97.36" rerouteNo="0" devices="tripinfo_34" vType="type5" speedFactor="1.00" vaporized=""/>
    <tripinfo id="69" depart="78.00" departLane="52o_0" departPos="2.30" departPosLat="0.00" departSpeed="0.00" departDelay="8.00" arrival="226.00" arrivalLane="153i_0" arrivalPos="20.20" arrivalPosLat="0.00" arrivalSpeed="16.90" duration="148.00" routeLength="1067.90" waitSteps="45" timeLoss="71.46" rerouteNo="0" devices="tripinfo_69" vType="type2" speedFactor="1.00" vaporized=""/>
    <tripinfo id="90" depart="95.00" departLane="51o_0" departPos="7.20" departPosLat="0.00" departSpeed="0.00" departDelay="0.00" arrival="228.00" arrivalLane="54i_1" arrivalPos="10.00" arrivalPosLat="0.00" arrivalSpeed="11.80" duration="133.00" routeLength="1012.80" waitSteps="40" timeLoss="61.56" rerouteNo="0" devices="tripinfo_90" vType="type5" speedFactor="1.00" vaporized=""/>
    <tripinfo id="60" depart="65.00" departLane="51o_0" departPos="2.30" departPosLat="0.00" departSpeed="0.00" departDelay="0.00" arrival="229.00" arrivalLane="54i_0" arrivalPos="10.00" arrivalPosLat="0.00" arrivalSpeed="11.94" duration="164.00" routeLength="1017.70" waitSteps="73" timeLoss="91.71" rerouteNo="0" devices="tripinfo_60" vType="type2" speedFactor="1.00" vaporized=""/>
    <tripinfo id="64" depart="72.00" departLane="51o_0" departPos="2.30" departPosLat="0.00" departSpeed="0.00" departDelay="7.00" arrival="235.00" arrivalLane="53i_0" arrivalPos="20.20" arrivalPosLat="0.00" arrivalSpeed="14.14" duration="163.00" routeLength="1067.90" waitSteps="66" timeLoss="86.75" rerouteNo="0" devices="tripinfo_64" vType="type2" speedFactor="1.00" vaporized=""/>
    <tripinfo id="129" depart="137.00" departLane="52o_0" departPos="2.30" departPosLat="0.00" departSpeed="0.00" departDelay="7.00" arrival="235.00" arrivalLane="153i_0" arrivalPos="20.20" arrivalPosLat="0.00" arrivalSpeed="14.15" duration="98.00" routeLength="1067.90" waitSteps="0" timeLoss="22.09" rerouteNo="0" devices="tripinfo_129" vType="type2" speedFactor="1.00" vaporized=""/>
    <tripinfo id="94" depart="114.00" departLane="51o_0" departPos="7.20" departPosLat="0.00" departSpeed="0.00" departDelay="19.00" arrival="235.00" arrivalLane="53i_1" arrivalPos="20.20" arrivalPosLat="0.00" arrivalSpeed="13.11" duration="121.00" routeLength="1063.00" waitSteps="22" timeLoss="45.37" rerouteNo="0" devices="tripinfo_94" vType="type5" speedFactor="1.00" vaporized=""/>
    <tripinfo id="120" depart="125.00" departLane="51o_0" departPos="2.30" departPosLat="0.00" departSpeed="0.00" departDelay="0.00" arrival="238.00" arrivalLane="54i_0" arrivalPos="10.00" arrivalPosLat="0.00" arrivalSpeed="14.44" duration="113.00" routeLength="1017.70" waitSteps="22" timeLoss="40.87" rerouteNo="0" devices="tripinfo_120" vType="type2" speedFactor="1.00" vaporized=""/>
    <tripinfo id="150" depart="155.00" departLane="51o_0" departPos="7.20" departPosLat="0.00" departSpeed="0.00" departDelay="0.00" arrival="239.00" arrivalLane="54i_1" arrivalPos="10.00" arrivalPosLat="0.00" arrivalSpeed="11.42" duration="84.00" routeLength="1012.80" waitSteps="0" timeLoss="12.79" rerouteNo="0" devices="tripinfo_150" vType="type5" speedFactor="1.00" vaporized=""/>
    <tripinfo id="124" depart="133.00" departLane="51o_0" departPos="2.30" departPosLat="0.00" departSpeed="0.00" departDelay="8.00" arrival="243.00" arrivalLane="53i_0" arrivalPos="20.20" arrivalPosLat="0.00" arrivalSpeed="14.38" duration="110.00" routeLength="1067.90" waitSteps="10" timeLoss="34.12" rerouteNo="0" devices="tripinfo_124" vType="type2" speedFactor="1.00" vaporized=""/>
    <tripinfo id="155" depart="160.00" departLane="52o_0" departPos="7.20" departPosLat="0.00" departSpeed="0.00" departDelay="0.00" arrival="243.00" arrivalLane="154i_0" arrivalPos="10.00" arrivalPosLat="0.00" arrivalSpeed="11.45" duration="83.00" routeLength="1012.80" waitSteps="0" timeLoss="11.47" rerouteNo="0" devices="tripinfo_155" vType="type5" speedFactor="1.00" vaporized=""/>
    <tripinfo id="71" depart="78.00" departLane="53o_0" departPos="5.10" departPosLat="0.00" departSpeed="0.00" departDelay="3.00" arrival="251.00" arrivalLane="54i_0" arrivalPos="10.00" arrivalPosLat="0.00" arrivalSpeed="11.93" duration="173.00" routeLength="1065.10" waitSteps="79" timeLoss="97.96" rerouteNo="0" devices="tripinfo_71" vType="type3" speedFactor="1.00" vaporized=""/>
    <tripinfo id="41" depart="51.00" departLane="53o_0" departPos="12.10" departPosLat="0.00" departSpeed="0.00" departDelay="6.00" arrival="253.00" arrivalLane="54i_0" arrivalPos="10.00" arrivalPosLat="0.00" arrivalSpeed="11.42" duration="202.00" routeLength="1058.10" waitSteps="107" timeLoss="128.25" rerouteNo="0" devices="tripinfo_41" vType="type6" speedFactor="1.00" vaporized=""/>
    <tripinfo id="101" depart="111.00" departLane="53o_0" departPos="12.10" departPosLat="0.00" departSpeed="0.00" departDelay="6.00" arrival="254.00" arrivalLane="54i_1" arrivalPos="10.00" arrivalPosLat="0.00" arrivalSpeed="11.41" duration="143.00" routeLength="1058.10" waitSteps="45" timeLoss="69.30" rerouteNo="0" devices="tripinfo_101" vType="type6" speedFactor="1.00" vaporized=""/>
    <tripinfo id="70" depart="75.00" departLane="53o_0" departPos="5.10" departPosLat="0.00" departSpeed="0.00" departDelay="0.00" arrival="255.00" arrivalLane="51i_0" arrivalPos="10.00" arrivalPosLat="0.00" arrivalSpeed="13.24" duration="180.00" routeLength="1065.10" waitSteps="89" timeLoss="105.51" rerouteNo="0" devices="tripinfo_70" vType="type3" speedFactor="1.00" vaporized=""/>
    <tripinfo id="131" depart="138.00" departLane="53o_0" departPos="5.10" departPosLat="0.00" departSpeed="0.00" departDelay="3.00" arrival="258.00" arrivalLane="54i_1" arrivalPos="10.00" arrivalPosLat="0.00" arrivalSpeed="11.85" duration="120.00" routeLength="1065.10" waitSteps="29" timeLoss="45.18" rerouteNo="0" devices="tripinfo_131" vType="type3" speedFactor="1.00" vaporized=""/>
    <tripinfo id="100" depart="105.00" departLane="53o_0" departPos="12.10" departPosLat="0.00" departSpeed="0.00" departDelay="0.00" arrival="258.00" arrivalLane="51i_0" arrivalPos="10.00" arrivalPosLat="0.00" arrivalSpeed="11.81" duration="153.00" routeLength="1058.10" waitSteps="53" timeLoss="78.59" rerouteNo="0" devices="tripinfo_100" vType="type6" speedFactor="1.00" vaporized=""/>
    <tripinfo id="161" depart="171.00" departLane="53o_0" departPos="12.10" departPosLat="0.00" departSpeed="0.00" departDelay="6.00" arrival="259.00" arrivalLane="54i_0" arrivalPos="10.00" arrivalPosLat="0.00" arrivalSpeed="12.02" duration="88.00" routeLength="1058.10" waitSteps="0" timeLoss="13.68" rerouteNo="0" devices="tripinfo_161" vType="type6" speedFactor="1.00" vaporized=""/>
    <tripinfo id="130" depart="135.00" departLane="53o_0" departPos="5.10" departPosLat="0.00" departSpeed="0.00" departDelay="0.00" arrival="262.00" arrivalLane="51i_0" arrivalPos="10.00" arrivalPosLat="0.00" arrivalSpeed="12.20" duration="127.00" routeLength="1065.10" waitSteps="31" timeLoss="52.05" rerouteNo="0" devices="tripinfo_130" vType="type3" speedFactor="1.00" vaporized=""/>
    <tripinfo id="160" depart="165.00" departLane="53o_0" departPos="12.10" departPosLat="0.00" departSpeed="0.00" departDelay="0.00" arrival="262.00" arrivalLane="51i_1" arrivalPos="10.00" arrivalPosLat="-0.39" arrivalSpeed="10.54" duration="97.00" routeLength="1058.10" waitSteps="0" timeLoss="22.90" rerouteNo="0" devices="tripinfo_160" vType="type6" speedFactor="1.00" vaporized=""/>
    <tripinfo id="159" depart="178.00" departLane="52o_0" departPos="7.20" departPosLat="0.00" departSpeed="0.00" departDelay="18.00" arrival="267.00" arrivalLane="153i_0" arrivalPos="20.20" arrivalPosLat="0.00" arrivalSpeed="12.64" duration="89.00" routeLength="1063.00" waitSteps="0" timeLoss="13.27" rerouteNo="0" devices="tripinfo_159" vType="type5" speedFactor="1.00" vaporized=""/>
    <tripinfo id="185" depart="190.00" departLane="52o_0" departPos="2.30" departPosLat="0.00" departSpeed="0.00" departDelay="0.00" arrival="274.00" arrivalLane="154i_0" arrivalPos="10.00" arrivalPosLat="0.00" arrivalSpeed="13.19" duration="84.00" routeLength="1017.70" waitSteps="0" timeLoss="12.13" rerouteNo="0" devices="tripinfo_185" vType="type2" speedFactor="1.00" vaporized=""/>
    <tripinfo id="190" depart="195.00" departLane="53o_0" departPos="5.10" departPosLat="0.00" departSpeed="0.00" departDelay="0.00" arrival="278.00" arrivalLane="51i_0" arrivalPos="10.00" arrivalPosLat="0.00" arrivalSpeed="12.40" duration="83.00" routeLength="1065.10" waitSteps="0" timeLoss="8.64" rerouteNo="0" devices="tripinfo_190" vType="type3" speedFactor="1.00" vaporized=""/>
</tripinfos>
