<?xml version="1.0" encoding="UTF-8"?>

<!-- generated on Sunday 27 January 2019 11:36:33 AM IST by SUMO gui Version 0.32.0
<?xml version="1.0" encoding="UTF-8"?>

<configuration xmlns:xsi="http://www.w3.org/2001/XMLSchema-instance" xsi:noNamespaceSchemaLocation="http://sumo.dlr.de/xsd/sumoConfiguration.xsd">

    <input>
        <net-file value="data/cross_2lanes.net.xml"/>
        <route-files value="data/cross_7_3_10mins.rou.xml"/>
        <additional-files value="data/cross.det.xml"/>
    </input>

    <output>
        <tripinfo-output value="tripinfo.xml"/>
    </output>

    <time>
        <begin value="0"/>
    </time>

    <processing>
        <lateral-resolution value="0.64"/>
        <waiting-time-memory value="60"/>
    </processing>

    <report>
        <verbose value="true"/>
        <no-step-log value="true"/>
    </report>

    <gui_only>
        <start value="true"/>
    </gui_only>

</configuration>
-->

<tripinfos xmlns:xsi="http://www.w3.org/2001/XMLSchema-instance" xsi:noNamespaceSchemaLocation="http://sumo.dlr.de/xsd/tripinfo_file.xsd">
    <tripinfo id="0" depart="5.00" departLane="54o_0" departPos="2.30" departPosLat="0.00" departSpeed="0.00" departDelay="0.00" arrival="88.00" arrivalLane="51i_0" arrivalPos="10.00" arrivalPosLat="0.00" arrivalSpeed="14.56" duration="83.00" routeLength="1016.17" waitSteps="0" timeLoss="11.17" rerouteNo="0" devices="tripinfo_0" vType="type2" speedFactor="1.00" vaporized=""/>
    <tripinfo id="1" depart="7.00" departLane="54o_0" departPos="2.30" departPosLat="0.00" departSpeed="0.00" departDelay="2.00" arrival="91.00" arrivalLane="51i_0" arrivalPos="10.00" arrivalPosLat="0.00" arrivalSpeed="14.44" duration="84.00" routeLength="1016.17" waitSteps="0" timeLoss="11.96" rerouteNo="0" devices="tripinfo_1" vType="type2" speedFactor="1.00" vaporized=""/>
    <tripinfo id="2" depart="8.00" departLane="54o_0" departPos="2.30" departPosLat="0.00" departSpeed="0.00" departDelay="3.00" arrival="93.00" arrivalLane="51i_0" arrivalPos="10.00" arrivalPosLat="0.00" arrivalSpeed="12.24" duration="85.00" routeLength="1016.17" waitSteps="0" timeLoss="13.05" rerouteNo="0" devices="tripinfo_2" vType="type2" speedFactor="1.00" vaporized=""/>
    <tripinfo id="3" depart="10.00" departLane="54o_0" departPos="2.30" departPosLat="0.00" departSpeed="0.00" departDelay="5.00" arrival="95.00" arrivalLane="51i_0" arrivalPos="10.00" arrivalPosLat="1.30" arrivalSpeed="13.50" duration="85.00" routeLength="1016.17" waitSteps="0" timeLoss="12.84" rerouteNo="0" devices="tripinfo_3" vType="type2" speedFactor="1.00" vaporized=""/>
    <tripinfo id="4" depart="12.00" departLane="54o_0" departPos="2.30" departPosLat="0.00" departSpeed="0.00" departDelay="7.00" arrival="97.00" arrivalLane="51i_0" arrivalPos="10.00" arrivalPosLat="0.00" arrivalSpeed="12.42" duration="85.00" routeLength="1016.17" waitSteps="0" timeLoss="13.26" rerouteNo="0" devices="tripinfo_4" vType="type2" speedFactor="1.00" vaporized=""/>
    <tripinfo id="5" depart="14.00" departLane="54o_0" departPos="2.30" departPosLat="0.00" departSpeed="0.00" departDelay="4.00" arrival="100.00" arrivalLane="51i_0" arrivalPos="10.00" arrivalPosLat="0.00" arrivalSpeed="13.60" duration="86.00" routeLength="1016.17" waitSteps="0" timeLoss="13.59" rerouteNo="0" devices="tripinfo_5" vType="type2" speedFactor="1.00" vaporized=""/>
    <tripinfo id="11" depart="20.00" departLane="54o_0" departPos="5.10" departPosLat="0.00" departSpeed="0.00" departDelay="5.00" arrival="101.00" arrivalLane="51i_1" arrivalPos="10.00" arrivalPosLat="-0.74" arrivalSpeed="11.30" duration="81.00" routeLength="1013.37" waitSteps="0" timeLoss="8.96" rerouteNo="0" devices="tripinfo_11" vType="type3" speedFactor="1.00" vaporized=""/>
    <tripinfo id="6" depart="16.00" departLane="54o_0" departPos="2.30" departPosLat="0.00" departSpeed="0.00" departDelay="6.00" arrival="102.00" arrivalLane="51i_0" arrivalPos="10.00" arrivalPosLat="0.00" arrivalSpeed="14.10" duration="86.00" routeLength="1016.17" waitSteps="0" timeLoss="13.95" rerouteNo="0" devices="tripinfo_6" vType="type2" speedFactor="1.00" vaporized=""/>
    <tripinfo id="7" depart="18.00" departLane="54o_0" departPos="2.30" departPosLat="0.00" departSpeed="0.00" departDelay="8.00" arrival="103.00" arrivalLane="51i_0" arrivalPos="10.00" arrivalPosLat="1.41" arrivalSpeed="14.55" duration="85.00" routeLength="1016.17" waitSteps="0" timeLoss="12.80" rerouteNo="0" devices="tripinfo_7" vType="type2" speedFactor="1.00" vaporized=""/>
    <tripinfo id="12" depart="23.00" departLane="54o_0" departPos="5.10" departPosLat="0.00" departSpeed="0.00" departDelay="8.00" arrival="104.00" arrivalLane="51i_1" arrivalPos="10.00" arrivalPosLat="0.00" arrivalSpeed="12.84" duration="81.00" routeLength="1013.37" waitSteps="0" timeLoss="9.17" rerouteNo="0" devices="tripinfo_12" vType="type3" speedFactor="1.00" vaporized=""/>
    <tripinfo id="8" depart="10.00" departLane="51o_0" departPos="2.30" departPosLat="0.00" departSpeed="0.00" departDelay="0.00" arrival="108.00" arrivalLane="54i_0" arrivalPos="10.00" arrivalPosLat="0.00" arrivalSpeed="15.37" duration="98.00" routeLength="1000.20" waitSteps="13" timeLoss="27.19" rerouteNo="0" devices="tripinfo_8" vType="type2" speedFactor="1.00" vaporized=""/>
    <tripinfo id="10" depart="15.00" departLane="51o_0" departPos="5.10" departPosLat="0.00" departSpeed="0.00" departDelay="0.00" arrival="109.00" arrivalLane="54i_1" arrivalPos="10.00" arrivalPosLat="0.00" arrivalSpeed="12.25" duration="94.00" routeLength="997.40" waitSteps="9" timeLoss="23.39" rerouteNo="0" devices="tripinfo_10" vType="type3" speedFactor="1.00" vaporized=""/>
    <tripinfo id="9" depart="11.00" departLane="51o_0" departPos="2.30" departPosLat="0.00" departSpeed="0.00" departDelay="1.00" arrival="111.00" arrivalLane="54i_0" arrivalPos="10.00" arrivalPosLat="0.00" arrivalSpeed="15.07" duration="100.00" routeLength="1000.20" waitSteps="12" timeLoss="28.68" rerouteNo="0" devices="tripinfo_9" vType="type2" speedFactor="1.00" vaporized=""/>
    <tripinfo id="18" depart="20.00" departLane="51o_0" departPos="5.10" departPosLat="0.00" departSpeed="0.00" departDelay="0.00" arrival="111.00" arrivalLane="54i_1" arrivalPos="10.00" arrivalPosLat="0.00" arrivalSpeed="12.96" duration="91.00" routeLength="997.40" waitSteps="6" timeLoss="20.48" rerouteNo="0" devices="tripinfo_18" vType="type3" speedFactor="1.00" vaporized=""/>
    <tripinfo id="19" depart="23.00" departLane="51o_0" departPos="5.10" departPosLat="0.00" departSpeed="0.00" departDelay="3.00" arrival="113.00" arrivalLane="54i_0" arrivalPos="10.00" arrivalPosLat="0.00" arrivalSpeed="13.41" duration="90.00" routeLength="997.40" waitSteps="3" timeLoss="19.53" rerouteNo="0" devices="tripinfo_19" vType="type3" speedFactor="1.00" vaporized=""/>
    <tripinfo id="20" depart="26.00" departLane="51o_0" departPos="5.10" departPosLat="0.00" departSpeed="0.00" departDelay="1.00" arrival="115.00" arrivalLane="54i_0" arrivalPos="10.00" arrivalPosLat="0.00" arrivalSpeed="11.54" duration="89.00" routeLength="997.40" waitSteps="1" timeLoss="18.69" rerouteNo="0" devices="tripinfo_20" vType="type4" speedFactor="1.00" vaporized=""/>
    <tripinfo id="28" depart="30.00" departLane="51o_0" departPos="5.10" departPosLat="0.00" departSpeed="0.00" departDelay="0.00" arrival="117.00" arrivalLane="54i_1" arrivalPos="10.00" arrivalPosLat="0.00" arrivalSpeed="11.92" duration="87.00" routeLength="997.40" waitSteps="0" timeLoss="16.06" rerouteNo="0" devices="tripinfo_28" vType="type4" speedFactor="1.00" vaporized=""/>
    <tripinfo id="29" depart="33.00" departLane="51o_0" departPos="5.10" departPosLat="0.00" departSpeed="0.00" departDelay="3.00" arrival="119.00" arrivalLane="54i_0" arrivalPos="10.00" arrivalPosLat="0.00" arrivalSpeed="12.56" duration="86.00" routeLength="997.40" waitSteps="0" timeLoss="15.15" rerouteNo="0" devices="tripinfo_29" vType="type4" speedFactor="1.00" vaporized=""/>
    <tripinfo id="13" depart="26.00" departLane="54o_0" departPos="5.10" departPosLat="0.00" departSpeed="0.00" departDelay="11.00" arrival="148.00" arrivalLane="51i_0" arrivalPos="10.00" arrivalPosLat="0.00" arrivalSpeed="12.11" duration="122.00" routeLength="1013.37" waitSteps="35" timeLoss="50.02" rerouteNo="0" devices="tripinfo_13" vType="type3" speedFactor="1.00" vaporized=""/>
    <tripinfo id="14" depart="29.00" departLane="54o_0" departPos="5.10" departPosLat="0.00" departSpeed="0.00" departDelay="14.00" arrival="150.00" arrivalLane="51i_0" arrivalPos="10.00" arrivalPosLat="0.00" arrivalSpeed="10.70" duration="121.00" routeLength="1013.37" waitSteps="34" timeLoss="49.41" rerouteNo="0" devices="tripinfo_14" vType="type3" speedFactor="1.00" vaporized=""/>
    <tripinfo id="15" depart="32.00" departLane="54o_0" departPos="5.10" departPosLat="0.00" departSpeed="0.00" departDelay="12.00" arrival="152.00" arrivalLane="51i_0" arrivalPos="10.00" arrivalPosLat="0.00" arrivalSpeed="12.03" duration="120.00" routeLength="1013.37" waitSteps="32" timeLoss="48.51" rerouteNo="0" devices="tripinfo_15" vType="type3" speedFactor="1.00" vaporized=""/>
    <tripinfo id="16" depart="35.00" departLane="54o_0" departPos="5.10" departPosLat="0.00" departSpeed="0.00" departDelay="15.00" arrival="154.00" arrivalLane="51i_0" arrivalPos="10.00" arrivalPosLat="0.00" arrivalSpeed="12.47" duration="119.00" routeLength="1013.37" waitSteps="30" timeLoss="47.50" rerouteNo="0" devices="tripinfo_16" vType="type3" speedFactor="1.00" vaporized=""/>
    <tripinfo id="17" depart="38.00" departLane="54o_0" departPos="5.10" departPosLat="0.00" departSpeed="0.00" departDelay="18.00" arrival="156.00" arrivalLane="51i_0" arrivalPos="10.00" arrivalPosLat="0.00" arrivalSpeed="12.58" duration="118.00" routeLength="1013.37" waitSteps="28" timeLoss="46.68" rerouteNo="0" devices="tripinfo_17" vType="type3" speedFactor="1.00" vaporized=""/>
    <tripinfo id="21" depart="41.00" departLane="54o_0" departPos="5.10" departPosLat="0.00" departSpeed="0.00" departDelay="16.00" arrival="158.00" arrivalLane="51i_0" arrivalPos="10.00" arrivalPosLat="0.00" arrivalSpeed="12.37" duration="117.00" routeLength="1013.37" waitSteps="26" timeLoss="45.67" rerouteNo="0" devices="tripinfo_21" vType="type4" speedFactor="1.00" vaporized=""/>
    <tripinfo id="22" depart="44.00" departLane="54o_0" departPos="5.10" departPosLat="0.00" departSpeed="0.00" departDelay="19.00" arrival="160.00" arrivalLane="51i_1" arrivalPos="10.00" arrivalPosLat="0.00" arrivalSpeed="12.18" duration="116.00" routeLength="1013.37" waitSteps="26" timeLoss="44.78" rerouteNo="0" devices="tripinfo_22" vType="type4" speedFactor="1.00" vaporized=""/>
    <tripinfo id="24" depart="50.00" departLane="54o_0" departPos="5.10" departPosLat="0.00" departSpeed="0.00" departDelay="25.00" arrival="161.00" arrivalLane="51i_0" arrivalPos="10.00" arrivalPosLat="0.00" arrivalSpeed="12.32" duration="111.00" routeLength="1013.37" waitSteps="21" timeLoss="41.56" rerouteNo="0" devices="tripinfo_24" vType="type4" speedFactor="1.00" vaporized=""/>
    <tripinfo id="30" depart="36.00" departLane="51o_0" departPos="7.20" departPosLat="0.00" departSpeed="0.00" departDelay="1.00" arrival="163.00" arrivalLane="54i_0" arrivalPos="10.00" arrivalPosLat="0.00" arrivalSpeed="11.56" duration="127.00" routeLength="995.30" waitSteps="36" timeLoss="56.69" rerouteNo="0" devices="tripinfo_30" vType="type5" speedFactor="1.00" vaporized=""/>
    <tripinfo id="38" depart="40.00" departLane="51o_0" departPos="7.20" departPosLat="0.00" departSpeed="0.00" departDelay="0.00" arrival="165.00" arrivalLane="54i_0" arrivalPos="10.00" arrivalPosLat="0.00" arrivalSpeed="12.26" duration="125.00" routeLength="995.30" waitSteps="34" timeLoss="54.91" rerouteNo="0" devices="tripinfo_38" vType="type5" speedFactor="1.00" vaporized=""/>
    <tripinfo id="23" depart="47.00" departLane="54o_0" departPos="5.10" departPosLat="0.00" departSpeed="0.00" departDelay="22.00" arrival="187.00" arrivalLane="51i_0" arrivalPos="10.00" arrivalPosLat="0.00" arrivalSpeed="11.94" duration="140.00" routeLength="1013.37" waitSteps="47" timeLoss="68.53" rerouteNo="0" devices="tripinfo_23" vType="type4" speedFactor="1.00" vaporized=""/>
    <tripinfo id="25" depart="53.00" departLane="54o_0" departPos="5.10" departPosLat="0.00" departSpeed="0.00" departDelay="23.00" arrival="189.00" arrivalLane="51i_0" arrivalPos="10.00" arrivalPosLat="0.00" arrivalSpeed="11.02" duration="136.00" routeLength="1013.37" waitSteps="41" timeLoss="64.55" rerouteNo="0" devices="tripinfo_25" vType="type4" speedFactor="1.00" vaporized=""/>
    <tripinfo id="26" depart="56.00" departLane="54o_0" departPos="5.10" departPosLat="0.00" departSpeed="0.00" departDelay="26.00" arrival="192.00" arrivalLane="51i_0" arrivalPos="10.00" arrivalPosLat="0.00" arrivalSpeed="12.06" duration="136.00" routeLength="1013.37" waitSteps="37" timeLoss="64.11" rerouteNo="0" devices="tripinfo_26" vType="type4" speedFactor="1.00" vaporized=""/>
    <tripinfo id="27" depart="59.00" departLane="54o_0" departPos="5.10" departPosLat="0.00" departSpeed="0.00" departDelay="29.00" arrival="194.00" arrivalLane="51i_0" arrivalPos="10.00" arrivalPosLat="0.00" arrivalSpeed="10.40" duration="135.00" routeLength="1013.37" waitSteps="35" timeLoss="63.49" rerouteNo="0" devices="tripinfo_27" vType="type4" speedFactor="1.00" vaporized=""/>
    <tripinfo id="31" depart="62.00" departLane="54o_0" departPos="7.20" departPosLat="0.00" departSpeed="0.00" departDelay="27.00" arrival="196.00" arrivalLane="51i_0" arrivalPos="10.00" arrivalPosLat="0.00" arrivalSpeed="10.68" duration="134.00" routeLength="1011.27" waitSteps="30" timeLoss="62.54" rerouteNo="0" devices="tripinfo_31" vType="type5" speedFactor="1.00" vaporized=""/>
    <tripinfo id="32" depart="67.00" departLane="54o_0" departPos="7.20" departPosLat="0.00" departSpeed="0.00" departDelay="32.00" arrival="198.00" arrivalLane="51i_1" arrivalPos="10.00" arrivalPosLat="0.00" arrivalSpeed="11.63" duration="131.00" routeLength="1011.27" waitSteps="26" timeLoss="58.99" rerouteNo="0" devices="tripinfo_32" vType="type5" speedFactor="1.00" vaporized=""/>
    <tripinfo id="34" depart="75.00" departLane="54o_0" departPos="7.20" departPosLat="0.00" departSpeed="0.00" departDelay="40.00" arrival="199.00" arrivalLane="51i_0" arrivalPos="10.00" arrivalPosLat="0.00" arrivalSpeed="11.65" duration="124.00" routeLength="1011.27" waitSteps="20" timeLoss="55.43" rerouteNo="0" devices="tripinfo_34" vType="type5" speedFactor="1.00" vaporized=""/>
    <tripinfo id="39" depart="45.00" departLane="51o_0" departPos="7.20" departPosLat="0.00" departSpeed="0.00" departDelay="5.00" arrival="202.00" arrivalLane="54i_0" arrivalPos="10.00" arrivalPosLat="0.00" arrivalSpeed="10.71" duration="157.00" routeLength="995.30" waitSteps="62" timeLoss="86.75" rerouteNo="0" devices="tripinfo_39" vType="type5" speedFactor="1.00" vaporized=""/>
    <tripinfo id="80" depart="88.00" departLane="51o_0" departPos="5.10" departPosLat="0.00" departSpeed="0.00" departDelay="3.00" arrival="208.00" arrivalLane="54i_0" arrivalPos="10.00" arrivalPosLat="0.00" arrivalSpeed="11.98" duration="120.00" routeLength="997.40" waitSteps="27" timeLoss="49.40" rerouteNo="0" devices="tripinfo_80" vType="type4" speedFactor="1.00" vaporized=""/>
    <tripinfo id="33" depart="71.00" departLane="54o_0" departPos="7.20" departPosLat="0.00" departSpeed="0.00" departDelay="36.00" arrival="236.00" arrivalLane="51i_0" arrivalPos="10.00" arrivalPosLat="0.00" arrivalSpeed="11.85" duration="165.00" routeLength="1011.27" waitSteps="54" timeLoss="93.83" rerouteNo="0" devices="tripinfo_33" vType="type5" speedFactor="1.00" vaporized=""/>
    <tripinfo id="35" depart="80.00" departLane="54o_0" departPos="7.20" departPosLat="0.00" departSpeed="0.00" departDelay="40.00" arrival="239.00" arrivalLane="51i_0" arrivalPos="10.00" arrivalPosLat="0.00" arrivalSpeed="12.17" duration="159.00" routeLength="1011.27" waitSteps="42" timeLoss="87.25" rerouteNo="0" devices="tripinfo_35" vType="type5" speedFactor="1.00" vaporized=""/>
    <tripinfo id="36" depart="85.00" departLane="54o_0" departPos="7.20" departPosLat="0.00" departSpeed="0.00" departDelay="45.00" arrival="241.00" arrivalLane="51i_0" arrivalPos="10.00" arrivalPosLat="0.00" arrivalSpeed="11.82" duration="156.00" routeLength="1011.27" waitSteps="40" timeLoss="84.85" rerouteNo="0" devices="tripinfo_36" vType="type5" speedFactor="1.00" vaporized=""/>
    <tripinfo id="37" depart="90.00" departLane="54o_0" departPos="7.20" departPosLat="0.00" departSpeed="0.00" departDelay="50.00" arrival="244.00" arrivalLane="51i_0" arrivalPos="10.00" arrivalPosLat="0.00" arrivalSpeed="11.97" duration="154.00" routeLength="1011.27" waitSteps="40" timeLoss="82.13" rerouteNo="0" devices="tripinfo_37" vType="type5" speedFactor="1.00" vaporized=""/>
    <tripinfo id="41" depart="95.00" departLane="54o_0" departPos="10.00" departPosLat="0.00" departSpeed="0.00" departDelay="50.00" arrival="246.00" arrivalLane="51i_0" arrivalPos="10.00" arrivalPosLat="0.00" arrivalSpeed="10.66" duration="151.00" routeLength="1008.47" waitSteps="38" timeLoss="79.88" rerouteNo="0" devices="tripinfo_41" vType="type6" speedFactor="1.00" vaporized=""/>
    <tripinfo id="42" depart="101.00" departLane="54o_0" departPos="10.00" departPosLat="0.00" departSpeed="0.00" departDelay="56.00" arrival="249.00" arrivalLane="51i_0" arrivalPos="10.00" arrivalPosLat="0.00" arrivalSpeed="11.91" duration="148.00" routeLength="1008.47" waitSteps="37" timeLoss="76.83" rerouteNo="0" devices="tripinfo_42" vType="type6" speedFactor="1.00" vaporized=""/>
    <tripinfo id="43" depart="106.00" departLane="54o_0" departPos="10.00" departPosLat="0.00" departSpeed="0.00" departDelay="61.00" arrival="252.00" arrivalLane="51i_0" arrivalPos="10.00" arrivalPosLat="0.00" arrivalSpeed="11.81" duration="146.00" routeLength="1008.47" waitSteps="35" timeLoss="74.72" rerouteNo="0" devices="tripinfo_43" vType="type6" speedFactor="1.00" vaporized=""/>
    <tripinfo id="44" depart="111.00" departLane="54o_0" departPos="10.00" departPosLat="0.00" departSpeed="0.00" departDelay="66.00" arrival="254.00" arrivalLane="51i_0" arrivalPos="10.00" arrivalPosLat="0.00" arrivalSpeed="12.13" duration="143.00" routeLength="1008.47" waitSteps="32" timeLoss="71.98" rerouteNo="0" devices="tripinfo_44" vType="type6" speedFactor="1.00" vaporized=""/>
    <tripinfo id="45" depart="117.00" departLane="54o_0" departPos="10.00" departPosLat="0.00" departSpeed="0.00" departDelay="67.00" arrival="257.00" arrivalLane="51i_0" arrivalPos="10.00" arrivalPosLat="0.00" arrivalSpeed="11.64" duration="140.00" routeLength="1008.47" waitSteps="27" timeLoss="68.75" rerouteNo="0" devices="tripinfo_45" vType="type6" speedFactor="1.00" vaporized=""/>
    <tripinfo id="46" depart="123.00" departLane="54o_0" departPos="10.00" departPosLat="0.00" departSpeed="0.00" departDelay="73.00" arrival="259.00" arrivalLane="51i_0" arrivalPos="10.00" arrivalPosLat="0.00" arrivalSpeed="10.99" duration="136.00" routeLength="1008.47" waitSteps="25" timeLoss="64.64" rerouteNo="0" devices="tripinfo_46" vType="type6" speedFactor="1.00" vaporized=""/>
    <tripinfo id="47" depart="128.00" departLane="54o_0" departPos="10.00" departPosLat="0.00" departSpeed="0.00" departDelay="78.00" arrival="262.00" arrivalLane="51i_0" arrivalPos="10.00" arrivalPosLat="0.00" arrivalSpeed="12.05" duration="134.00" routeLength="1008.47" waitSteps="22" timeLoss="62.77" rerouteNo="0" devices="tripinfo_47" vType="type6" speedFactor="1.00" vaporized=""/>
    <tripinfo id="40" depart="50.00" departLane="51o_0" departPos="10.00" departPosLat="0.00" departSpeed="0.00" departDelay="5.00" arrival="268.00" arrivalLane="54i_0" arrivalPos="10.00" arrivalPosLat="0.00" arrivalSpeed="11.65" duration="218.00" routeLength="992.50" waitSteps="113" timeLoss="148.08" rerouteNo="0" devices="tripinfo_40" vType="type6" speedFactor="1.00" vaporized=""/>
    <tripinfo id="48" depart="56.00" departLane="51o_0" departPos="10.00" departPosLat="0.00" departSpeed="0.00" departDelay="6.00" arrival="271.00" arrivalLane="54i_1" arrivalPos="10.00" arrivalPosLat="0.00" arrivalSpeed="11.52" duration="215.00" routeLength="992.50" waitSteps="106" timeLoss="144.51" rerouteNo="0" devices="tripinfo_48" vType="type6" speedFactor="1.00" vaporized=""/>
    <tripinfo id="61" depart="150.00" departLane="54o_0" departPos="2.30" departPosLat="0.00" departSpeed="0.00" departDelay="85.00" arrival="294.00" arrivalLane="51i_0" arrivalPos="10.00" arrivalPosLat="0.00" arrivalSpeed="15.74" duration="144.00" routeLength="1016.17" waitSteps="40" timeLoss="72.15" rerouteNo="0" devices="tripinfo_61" vType="type2" speedFactor="1.00" vaporized=""/>
    <tripinfo id="62" depart="152.00" departLane="54o_0" departPos="2.30" departPosLat="0.00" departSpeed="0.00" departDelay="87.00" arrival="296.00" arrivalLane="51i_0" arrivalPos="10.00" arrivalPosLat="0.00" arrivalSpeed="15.76" duration="144.00" routeLength="1016.17" waitSteps="35" timeLoss="72.11" rerouteNo="0" devices="tripinfo_62" vType="type2" speedFactor="1.00" vaporized=""/>
    <tripinfo id="63" depart="154.00" departLane="54o_0" departPos="2.30" departPosLat="0.00" departSpeed="0.00" departDelay="89.00" arrival="299.00" arrivalLane="51i_0" arrivalPos="10.00" arrivalPosLat="0.00" arrivalSpeed="13.37" duration="145.00" routeLength="1016.17" waitSteps="34" timeLoss="73.16" rerouteNo="0" devices="tripinfo_63" vType="type2" speedFactor="1.00" vaporized=""/>
    <tripinfo id="64" depart="156.00" departLane="54o_0" departPos="2.30" departPosLat="0.00" departSpeed="0.00" departDelay="91.00" arrival="300.00" arrivalLane="51i_2" arrivalPos="10.00" arrivalPosLat="0.00" arrivalSpeed="15.41" duration="144.00" routeLength="1016.17" waitSteps="31" timeLoss="71.78" rerouteNo="0" devices="tripinfo_64" vType="type2" speedFactor="1.00" vaporized=""/>
    <tripinfo id="66" depart="159.00" departLane="54o_0" departPos="2.30" departPosLat="0.00" departSpeed="0.00" departDelay="89.00" arrival="300.00" arrivalLane="51i_1" arrivalPos="10.00" arrivalPosLat="0.00" arrivalSpeed="12.39" duration="141.00" routeLength="1016.17" waitSteps="31" timeLoss="69.24" rerouteNo="0" devices="tripinfo_66" vType="type2" speedFactor="1.00" vaporized=""/>
    <tripinfo id="65" depart="157.00" departLane="54o_0" departPos="2.30" departPosLat="0.00" departSpeed="0.00" departDelay="87.00" arrival="302.00" arrivalLane="51i_2" arrivalPos="10.00" arrivalPosLat="0.00" arrivalSpeed="12.35" duration="145.00" routeLength="1016.17" waitSteps="20" timeLoss="73.05" rerouteNo="0" devices="tripinfo_65" vType="type2" speedFactor="1.00" vaporized=""/>
    <tripinfo id="67" depart="161.00" departLane="54o_0" departPos="2.30" departPosLat="0.00" departSpeed="0.00" departDelay="91.00" arrival="304.00" arrivalLane="51i_0" arrivalPos="10.00" arrivalPosLat="0.00" arrivalSpeed="13.64" duration="143.00" routeLength="1016.17" waitSteps="17" timeLoss="70.98" rerouteNo="0" devices="tripinfo_67" vType="type2" speedFactor="1.00" vaporized=""/>
    <tripinfo id="49" depart="61.00" departLane="51o_0" departPos="10.00" departPosLat="0.00" departSpeed="0.00" departDelay="11.00" arrival="308.00" arrivalLane="54i_0" arrivalPos="10.00" arrivalPosLat="0.00" arrivalSpeed="12.20" duration="247.00" routeLength="992.50" waitSteps="130" timeLoss="176.54" rerouteNo="0" devices="tripinfo_49" vType="type6" speedFactor="1.00" vaporized=""/>
    <tripinfo id="69" depart="77.00" departLane="51o_0" departPos="2.30" departPosLat="0.00" departSpeed="0.00" departDelay="7.00" arrival="315.00" arrivalLane="54i_1" arrivalPos="10.00" arrivalPosLat="0.00" arrivalSpeed="13.08" duration="238.00" routeLength="1000.20" waitSteps="107" timeLoss="167.44" rerouteNo="0" devices="tripinfo_69" vType="type2" speedFactor="1.00" vaporized=""/>
    <tripinfo id="60" depart="73.00" departLane="51o_0" departPos="2.30" departPosLat="0.00" departSpeed="0.00" departDelay="8.00" arrival="316.00" arrivalLane="54i_0" arrivalPos="10.00" arrivalPosLat="0.00" arrivalSpeed="13.41" duration="243.00" routeLength="1000.20" waitSteps="123" timeLoss="171.58" rerouteNo="0" devices="tripinfo_60" vType="type2" speedFactor="1.00" vaporized=""/>
    <tripinfo id="68" depart="75.00" departLane="51o_0" departPos="2.30" departPosLat="0.00" departSpeed="0.00" departDelay="5.00" arrival="318.00" arrivalLane="54i_0" arrivalPos="10.00" arrivalPosLat="0.00" arrivalSpeed="13.30" duration="243.00" routeLength="1000.20" waitSteps="118" timeLoss="172.07" rerouteNo="0" devices="tripinfo_68" vType="type2" speedFactor="1.00" vaporized=""/>
    <tripinfo id="53" depart="137.00" departLane="54o_0" departPos="1.70" departPosLat="0.00" departSpeed="0.00" departDelay="82.00" arrival="342.00" arrivalLane="51i_0" arrivalPos="10.00" arrivalPosLat="0.00" arrivalSpeed="5.40" duration="205.00" routeLength="1016.77" waitSteps="3" timeLoss="21.14" rerouteNo="0" devices="tripinfo_53" vType="type1" speedFactor="1.00" vaporized=""/>
    <tripinfo id="71" depart="164.00" departLane="54o_0" departPos="5.10" departPosLat="0.00" departSpeed="0.00" departDelay="89.00" arrival="344.00" arrivalLane="51i_0" arrivalPos="10.00" arrivalPosLat="0.00" arrivalSpeed="10.88" duration="180.00" routeLength="1013.37" waitSteps="38" timeLoss="108.44" rerouteNo="0" devices="tripinfo_71" vType="type3" speedFactor="1.00" vaporized=""/>
    <tripinfo id="73" depart="170.00" departLane="54o_0" departPos="5.10" departPosLat="0.00" departSpeed="0.00" departDelay="95.00" arrival="347.00" arrivalLane="51i_0" arrivalPos="10.00" arrivalPosLat="0.00" arrivalSpeed="12.05" duration="177.00" routeLength="1013.37" waitSteps="38" timeLoss="105.31" rerouteNo="0" devices="tripinfo_73" vType="type3" speedFactor="1.00" vaporized=""/>
    <tripinfo id="74" depart="173.00" departLane="54o_0" departPos="5.10" departPosLat="0.00" departSpeed="0.00" departDelay="98.00" arrival="349.00" arrivalLane="51i_0" arrivalPos="10.00" arrivalPosLat="0.00" arrivalSpeed="11.98" duration="176.00" routeLength="1013.37" waitSteps="34" timeLoss="104.30" rerouteNo="0" devices="tripinfo_74" vType="type3" speedFactor="1.00" vaporized=""/>
    <tripinfo id="75" depart="176.00" departLane="54o_0" departPos="5.10" departPosLat="0.00" departSpeed="0.00" departDelay="96.00" arrival="351.00" arrivalLane="51i_1" arrivalPos="10.00" arrivalPosLat="-1.20" arrivalSpeed="12.93" duration="175.00" routeLength="1013.37" waitSteps="33" timeLoss="103.33" rerouteNo="0" devices="tripinfo_75" vType="type3" speedFactor="1.00" vaporized=""/>
    <tripinfo id="52" depart="134.00" departLane="54o_0" departPos="1.70" departPosLat="0.00" departSpeed="0.00" departDelay="79.00" arrival="352.00" arrivalLane="51i_0" arrivalPos="10.00" arrivalPosLat="0.00" arrivalSpeed="5.34" duration="218.00" routeLength="1016.77" waitSteps="11" timeLoss="38.86" rerouteNo="0" devices="tripinfo_52" vType="type1" speedFactor="1.00" vaporized=""/>
    <tripinfo id="76" depart="179.00" departLane="54o_0" departPos="5.10" departPosLat="0.00" departSpeed="0.00" departDelay="99.00" arrival="353.00" arrivalLane="51i_0" arrivalPos="10.00" arrivalPosLat="1.00" arrivalSpeed="13.18" duration="174.00" routeLength="1013.37" waitSteps="32" timeLoss="102.54" rerouteNo="0" devices="tripinfo_76" vType="type3" speedFactor="1.00" vaporized=""/>
    <tripinfo id="77" depart="182.00" departLane="54o_0" departPos="5.10" departPosLat="0.00" departSpeed="0.00" departDelay="102.00" arrival="355.00" arrivalLane="51i_0" arrivalPos="10.00" arrivalPosLat="0.00" arrivalSpeed="12.27" duration="173.00" routeLength="1013.37" waitSteps="33" timeLoss="101.69" rerouteNo="0" devices="tripinfo_77" vType="type3" speedFactor="1.00" vaporized=""/>
    <tripinfo id="81" depart="185.00" departLane="54o_0" departPos="5.10" departPosLat="0.00" departSpeed="0.00" departDelay="100.00" arrival="357.00" arrivalLane="51i_0" arrivalPos="10.00" arrivalPosLat="0.00" arrivalSpeed="10.23" duration="172.00" routeLength="1013.37" waitSteps="32" timeLoss="100.47" rerouteNo="0" devices="tripinfo_81" vType="type4" speedFactor="1.00" vaporized=""/>
    <tripinfo id="82" depart="188.00" departLane="54o_0" departPos="5.10" departPosLat="0.00" departSpeed="0.00" departDelay="103.00" arrival="359.00" arrivalLane="51i_0" arrivalPos="10.00" arrivalPosLat="0.00" arrivalSpeed="12.76" duration="171.00" routeLength="1013.37" waitSteps="31" timeLoss="99.69" rerouteNo="0" devices="tripinfo_82" vType="type4" speedFactor="1.00" vaporized=""/>
    <tripinfo id="83" depart="191.00" departLane="54o_0" departPos="5.10" departPosLat="0.00" departSpeed="0.00" departDelay="106.00" arrival="361.00" arrivalLane="51i_0" arrivalPos="10.00" arrivalPosLat="0.00" arrivalSpeed="12.86" duration="170.00" routeLength="1013.37" waitSteps="30" timeLoss="98.74" rerouteNo="0" devices="tripinfo_83" vType="type4" speedFactor="1.00" vaporized=""/>
    <tripinfo id="110" depart="126.00" departLane="51o_0" departPos="1.70" departPosLat="0.00" departSpeed="0.00" departDelay="11.00" arrival="363.00" arrivalLane="54i_0" arrivalPos="10.00" arrivalPosLat="0.00" arrivalSpeed="5.16" duration="237.00" routeLength="1000.80" waitSteps="28" timeLoss="56.01" rerouteNo="0" devices="tripinfo_110" vType="type1" speedFactor="1.00" vaporized=""/>
    <tripinfo id="72" depart="167.00" departLane="54o_0" departPos="5.10" departPosLat="0.00" departSpeed="0.00" departDelay="92.00" arrival="365.00" arrivalLane="51i_0" arrivalPos="10.00" arrivalPosLat="0.00" arrivalSpeed="12.33" duration="198.00" routeLength="1013.37" waitSteps="36" timeLoss="126.02" rerouteNo="0" devices="tripinfo_72" vType="type3" speedFactor="1.00" vaporized=""/>
    <tripinfo id="118" depart="128.00" departLane="51o_0" departPos="1.70" departPosLat="0.00" departSpeed="0.00" departDelay="8.00" arrival="367.00" arrivalLane="54i_0" arrivalPos="10.00" arrivalPosLat="0.00" arrivalSpeed="5.45" duration="239.00" routeLength="1000.80" waitSteps="28" timeLoss="58.03" rerouteNo="0" devices="tripinfo_118" vType="type1" speedFactor="1.00" vaporized=""/>