<?xml version="1.0" encoding="UTF-8"?>

<!-- generated on Friday 12 October 2018 08:09:50 PM IST by SUMO gui Version 0.32.0
<?xml version="1.0" encoding="UTF-8"?>

<configuration xmlns:xsi="http://www.w3.org/2001/XMLSchema-instance" xsi:noNamespaceSchemaLocation="http://sumo.dlr.de/xsd/sumoConfiguration.xsd">

    <input>
        <net-file value="data/cross_2intersections_debug.net.xml"/>
        <route-files value="data/cross_2intersections.rou.xml"/>
    </input>

    <output>
        <tripinfo-output value="tripinfo.xml"/>
    </output>

    <time>
        <begin value="0"/>
    </time>

    <report>
        <verbose value="true"/>
        <no-step-log value="true"/>
    </report>

    <gui_only>
        <start value="true"/>
    </gui_only>

</configuration>
-->

<tripinfos xmlns:xsi="http://www.w3.org/2001/XMLSchema-instance" xsi:noNamespaceSchemaLocation="http://sumo.dlr.de/xsd/tripinfo_file.xsd">
    <tripinfo id="mixed2.0" depart="0.00" departLane="52o_2" departPos="2.20" departSpeed="0.00" departDelay="0.00" arrival="131.00" arrivalLane="54i_0" arrivalPos="10.00" arrivalSpeed="9.11" duration="131.00" routeLength="1117.80" waitSteps="12" timeLoss="28.69" rerouteNo="0" devices="tripinfo_mixed2.0" vType="moped" speedFactor="0.75" vaporized=""/>
    <tripinfo id="mixed2.6" depart="21.00" departLane="52o_2" departPos="2.20" departSpeed="0.00" departDelay="0.00" arrival="152.00" arrivalLane="54i_2" arrivalPos="10.00" arrivalSpeed="15.70" duration="131.00" routeLength="1117.80" waitSteps="20" timeLoss="59.99" rerouteNo="0" devices="tripinfo_mixed2.6" vType="moped" speedFactor="1.36" vaporized=""/>
    <tripinfo id="mixed2.8" depart="28.00" departLane="52o_2" departPos="5.10" departSpeed="0.00" departDelay="0.00" arrival="152.00" arrivalLane="54i_1" arrivalPos="10.00" arrivalSpeed="14.51" duration="124.00" routeLength="1114.90" waitSteps="24" timeLoss="62.34" rerouteNo="0" devices="tripinfo_mixed2.8" vType="car" speedFactor="1.25" vaporized=""/>
    <tripinfo id="mixed2.5" depart="18.00" departLane="52o_0" departPos="5.10" departSpeed="0.00" departDelay="0.50" arrival="154.00" arrivalLane="54i_0" arrivalPos="10.00" arrivalSpeed="12.47" duration="136.00" routeLength="1114.90" waitSteps="41" timeLoss="60.40" rerouteNo="0" devices="tripinfo_mixed2.5" vType="car" speedFactor="1.03" vaporized=""/>
    <tripinfo id="mixed2.3" depart="10.00" departLane="52o_2" departPos="2.20" departSpeed="0.00" departDelay="-0.50" arrival="160.00" arrivalLane="54i_0" arrivalPos="10.00" arrivalSpeed="11.32" duration="150.00" routeLength="1117.80" waitSteps="30" timeLoss="66.23" rerouteNo="0" devices="tripinfo_mixed2.3" vType="moped" speedFactor="0.98" vaporized=""/>
    <tripinfo id="mixed2.9" depart="31.00" departLane="52o_2" departPos="5.10" departSpeed="0.00" departDelay="-0.50" arrival="178.00" arrivalLane="54i_0" arrivalPos="10.00" arrivalSpeed="10.35" duration="147.00" routeLength="1114.90" waitSteps="15" timeLoss="50.92" rerouteNo="0" devices="tripinfo_mixed2.9" vType="car" speedFactor="0.80" vaporized=""/>
    <tripinfo id="mixed2.7" depart="24.00" departLane="52o_0" departPos="2.20" departSpeed="0.00" departDelay="-0.50" arrival="187.00" arrivalLane="54i_0" arrivalPos="10.00" arrivalSpeed="8.45" duration="163.00" routeLength="1117.80" waitSteps="10" timeLoss="51.76" rerouteNo="0" devices="tripinfo_mixed2.7" vType="moped" speedFactor="0.69" vaporized=""/>
    <tripinfo id="mixed2.11" depart="39.00" departLane="52o_1" departPos="5.10" departSpeed="0.00" departDelay="0.50" arrival="203.00" arrivalLane="54i_0" arrivalPos="10.00" arrivalSpeed="11.27" duration="164.00" routeLength="1114.90" waitSteps="30" timeLoss="93.07" rerouteNo="0" devices="tripinfo_mixed2.11" vType="car" speedFactor="1.08" vaporized=""/>
    <tripinfo id="mixed2.4" depart="14.00" departLane="52o_1" departPos="2.20" departSpeed="0.00" departDelay="0.00" arrival="210.00" arrivalLane="54i_0" arrivalPos="10.00" arrivalSpeed="6.88" duration="196.00" routeLength="1117.80" waitSteps="23" timeLoss="53.98" rerouteNo="0" devices="tripinfo_mixed2.4" vType="moped" speedFactor="0.54" vaporized=""/>
    <tripinfo id="mixed2.13" depart="45.00" departLane="52o_0" departPos="2.20" departSpeed="0.00" departDelay="-0.50" arrival="231.00" arrivalLane="54i_1" arrivalPos="10.00" arrivalSpeed="15.26" duration="186.00" routeLength="1117.80" waitSteps="45" timeLoss="114.50" rerouteNo="0" devices="tripinfo_mixed2.13" vType="moped" speedFactor="1.33" vaporized=""/>
    <tripinfo id="mixed2.19" depart="66.00" departLane="52o_0" departPos="5.10" departSpeed="0.00" departDelay="-0.50" arrival="242.00" arrivalLane="54i_0" arrivalPos="10.00" arrivalSpeed="13.66" duration="176.00" routeLength="1114.90" waitSteps="28" timeLoss="103.28" rerouteNo="0" devices="tripinfo_mixed2.19" vType="car" speedFactor="1.06" vaporized=""/>
    <tripinfo id="mixed2.18" depart="63.00" departLane="52o_2" departPos="5.10" departSpeed="0.00" departDelay="0.00" arrival="255.00" arrivalLane="54i_0" arrivalPos="10.00" arrivalSpeed="9.77" duration="192.00" routeLength="1114.90" waitSteps="28" timeLoss="88.94" rerouteNo="0" devices="tripinfo_mixed2.18" vType="car" speedFactor="0.75" vaporized=""/>
    <tripinfo id="mixed2.12" depart="42.00" departLane="52o_1" departPos="2.20" departSpeed="0.00" departDelay="0.00" arrival="260.00" arrivalLane="54i_0" arrivalPos="10.00" arrivalSpeed="8.49" duration="218.00" routeLength="1117.80" waitSteps="49" timeLoss="114.63" rerouteNo="0" devices="tripinfo_mixed2.12" vType="moped" speedFactor="0.74" vaporized=""/>
    <tripinfo id="mixed2.10" depart="35.00" departLane="52o_1" departPos="2.20" departSpeed="0.00" departDelay="0.00" arrival="266.00" arrivalLane="54i_0" arrivalPos="10.00" arrivalSpeed="9.11" duration="231.00" routeLength="1117.80" waitSteps="49" timeLoss="121.70" rerouteNo="0" devices="tripinfo_mixed2.10" vType="moped" speedFactor="0.71" vaporized=""/>
    <tripinfo id="mixed2.20" depart="70.00" departLane="52o_0" departPos="5.10" departSpeed="0.00" departDelay="0.00" arrival="269.00" arrivalLane="54i_1" arrivalPos="10.00" arrivalSpeed="15.80" duration="199.00" routeLength="1114.90" waitSteps="38" timeLoss="138.33" rerouteNo="0" devices="tripinfo_mixed2.20" vType="car" speedFactor="1.26" vaporized=""/>
    <tripinfo id="mixed2.15" depart="52.00" departLane="52o_2" departPos="2.20" departSpeed="0.00" departDelay="-0.50" arrival="273.00" arrivalLane="54i_0" arrivalPos="10.00" arrivalSpeed="13.21" duration="221.00" routeLength="1117.80" waitSteps="56" timeLoss="143.09" rerouteNo="0" devices="tripinfo_mixed2.15" vType="moped" speedFactor="1.12" vaporized=""/>
    <tripinfo id="mixed2.14" depart="49.00" departLane="52o_1" departPos="2.20" departSpeed="0.00" departDelay="0.00" arrival="279.00" arrivalLane="54i_1" arrivalPos="10.00" arrivalSpeed="12.19" duration="230.00" routeLength="1117.80" waitSteps="62" timeLoss="149.18" rerouteNo="0" devices="tripinfo_mixed2.14" vType="moped" speedFactor="1.04" vaporized=""/>
    <tripinfo id="mixed2.1" depart="3.00" departLane="52o_2" departPos="2.20" departSpeed="0.00" departDelay="-0.50" arrival="291.00" arrivalLane="54i_0" arrivalPos="10.00" arrivalSpeed="5.09" duration="288.00" routeLength="1117.80" waitSteps="27" timeLoss="72.34" rerouteNo="0" devices="tripinfo_mixed2.1" vType="moped" speedFactor="0.36" vaporized=""/>
    <tripinfo id="mixed2.23" depart="80.00" departLane="52o_2" departPos="2.20" departSpeed="0.00" departDelay="-0.50" arrival="297.00" arrivalLane="54i_2" arrivalPos="10.00" arrivalSpeed="16.23" duration="217.00" routeLength="1117.80" waitSteps="62" timeLoss="149.23" rerouteNo="0" devices="tripinfo_mixed2.23" vType="moped" speedFactor="1.49" vaporized=""/>
    <tripinfo id="mixed2.22" depart="77.00" departLane="52o_1" departPos="2.20" departSpeed="0.00" departDelay="0.00" arrival="298.00" arrivalLane="54i_2" arrivalPos="10.00" arrivalSpeed="16.35" duration="221.00" routeLength="1117.80" waitSteps="67" timeLoss="153.89" rerouteNo="0" devices="tripinfo_mixed2.22" vType="moped" speedFactor="1.62" vaporized=""/>
    <tripinfo id="mixed2.17" depart="60.00" departLane="52o_1" departPos="5.10" departSpeed="0.00" departDelay="0.50" arrival="306.00" arrivalLane="54i_0" arrivalPos="10.00" arrivalSpeed="12.75" duration="246.00" routeLength="1114.90" waitSteps="74" timeLoss="169.90" rerouteNo="0" devices="tripinfo_mixed2.17" vType="car" speedFactor="1.02" vaporized=""/>
    <tripinfo id="mixed2.2" depart="7.00" departLane="52o_1" departPos="2.20" departSpeed="0.00" departDelay="0.00" arrival="340.00" arrivalLane="54i_0" arrivalPos="10.00" arrivalSpeed="5.20" duration="333.00" routeLength="1117.80" waitSteps="48" timeLoss="95.28" rerouteNo="0" devices="tripinfo_mixed2.2" vType="moped" speedFactor="0.32" vaporized=""/>
    <tripinfo id="mixed2.25" depart="87.00" departLane="52o_0" departPos="5.10" departSpeed="0.00" departDelay="-0.50" arrival="366.00" arrivalLane="54i_0" arrivalPos="10.00" arrivalSpeed="11.59" duration="279.00" routeLength="1114.90" waitSteps="101" timeLoss="197.00" rerouteNo="0" devices="tripinfo_mixed2.25" vType="car" speedFactor="0.94" vaporized=""/>
    <tripinfo id="mixed2.21" depart="73.00" departLane="52o_0" departPos="5.10" departSpeed="0.00" departDelay="-0.50" arrival="381.00" arrivalLane="54i_0" arrivalPos="10.00" arrivalSpeed="9.51" duration="308.00" routeLength="1114.90" waitSteps="110" timeLoss="210.72" rerouteNo="0" devices="tripinfo_mixed2.21" vType="car" speedFactor="0.79" vaporized=""/>
    <tripinfo id="mixed2.44" depart="154.00" departLane="52o_0" departPos="2.20" departSpeed="0.00" departDelay="0.00" arrival="396.00" arrivalLane="54i_1" arrivalPos="10.00" arrivalSpeed="16.28" duration="242.00" routeLength="1117.80" waitSteps="47" timeLoss="173.70" rerouteNo="0" devices="tripinfo_mixed2.44" vType="moped" speedFactor="1.48" vaporized=""/>
    <tripinfo id="mixed2.26" depart="91.00" departLane="52o_1" departPos="2.20" departSpeed="0.00" departDelay="0.00" arrival="402.00" arrivalLane="54i_1" arrivalPos="10.00" arrivalSpeed="12.68" duration="311.00" routeLength="1117.80" waitSteps="123" timeLoss="231.42" rerouteNo="0" devices="tripinfo_mixed2.26" vType="moped" speedFactor="1.08" vaporized=""/>
    <tripinfo id="mixed2.16" depart="56.00" departLane="52o_0" departPos="2.20" departSpeed="0.00" departDelay="0.00" arrival="403.00" arrivalLane="54i_0" arrivalPos="10.00" arrivalSpeed="7.25" duration="347.00" routeLength="1117.80" waitSteps="119" timeLoss="208.57" rerouteNo="0" devices="tripinfo_mixed2.16" vType="moped" speedFactor="0.56" vaporized=""/>
    <tripinfo id="mixed2.28" depart="98.00" departLane="52o_0" departPos="2.20" departSpeed="0.00" departDelay="0.00" arrival="426.00" arrivalLane="54i_0" arrivalPos="10.00" arrivalSpeed="16.19" duration="328.00" routeLength="1117.80" waitSteps="136" timeLoss="258.45" rerouteNo="0" devices="tripinfo_mixed2.28" vType="moped" speedFactor="1.41" vaporized=""/>
    <tripinfo id="mixed2.33" depart="115.00" departLane="52o_2" departPos="2.20" departSpeed="0.00" departDelay="-0.50" arrival="451.00" arrivalLane="54i_1" arrivalPos="10.00" arrivalSpeed="9.42" duration="336.00" routeLength="1117.80" waitSteps="138" timeLoss="240.83" rerouteNo="0" devices="tripinfo_mixed2.33" vType="moped" speedFactor="0.81" vaporized=""/>
    <tripinfo id="mixed2.27" depart="94.00" departLane="52o_2" departPos="2.20" departSpeed="0.00" departDelay="-0.50" arrival="453.00" arrivalLane="54i_0" arrivalPos="10.00" arrivalSpeed="8.57" duration="359.00" routeLength="1117.80" waitSteps="139" timeLoss="257.20" rerouteNo="0" devices="tripinfo_mixed2.27" vType="moped" speedFactor="0.76" vaporized=""/>
    <tripinfo id="mixed2.36" depart="127.00" departLane="52o_0" departPos="2.20" departSpeed="0.00" departDelay="1.00" arrival="486.00" arrivalLane="54i_2" arrivalPos="10.00" arrivalSpeed="16.33" duration="359.00" routeLength="1117.80" waitSteps="157" timeLoss="291.61" rerouteNo="0" devices="tripinfo_mixed2.36" vType="moped" speedFactor="1.68" vaporized=""/>
    <tripinfo id="mixed2.30" depart="105.00" departLane="52o_0" departPos="2.20" departSpeed="0.00" departDelay="0.00" arrival="488.00" arrivalLane="54i_0" arrivalPos="10.00" arrivalSpeed="12.98" duration="383.00" routeLength="1117.80" waitSteps="172" timeLoss="305.59" rerouteNo="0" devices="tripinfo_mixed2.30" vType="moped" speedFactor="1.12" vaporized=""/>
    <tripinfo id="mixed2.61" depart="213.00" departLane="52o_1" departPos="2.20" departSpeed="0.00" departDelay="-0.50" arrival="500.00" arrivalLane="54i_0" arrivalPos="10.00" arrivalSpeed="10.64" duration="287.00" routeLength="1117.80" waitSteps="75" timeLoss="200.93" rerouteNo="0" devices="tripinfo_mixed2.61" vType="moped" speedFactor="0.92" vaporized=""/>
    <tripinfo id="mixed2.78" depart="273.00" departLane="52o_2" departPos="2.20" departSpeed="0.00" departDelay="0.00" arrival="520.00" arrivalLane="54i_1" arrivalPos="10.00" arrivalSpeed="13.82" duration="247.00" routeLength="1117.80" waitSteps="84" timeLoss="174.13" rerouteNo="0" devices="tripinfo_mixed2.78" vType="moped" speedFactor="1.26" vaporized=""/>
    <tripinfo id="mixed2.45" depart="157.00" departLane="52o_0" departPos="2.20" departSpeed="0.00" departDelay="-0.50" arrival="525.00" arrivalLane="54i_0" arrivalPos="10.00" arrivalSpeed="11.14" duration="368.00" routeLength="1117.80" waitSteps="129" timeLoss="285.30" rerouteNo="0" devices="tripinfo_mixed2.45" vType="moped" speedFactor="0.99" vaporized=""/>
    <tripinfo id="mixed2.24" depart="84.00" departLane="52o_2" departPos="2.20" departSpeed="0.00" departDelay="0.00" arrival="527.00" arrivalLane="54i_0" arrivalPos="10.00" arrivalSpeed="11.22" duration="443.00" routeLength="1117.80" waitSteps="216" timeLoss="359.90" rerouteNo="0" devices="tripinfo_mixed2.24" vType="moped" speedFactor="0.98" vaporized=""/>
    <tripinfo id="mixed2.41" depart="143.00" departLane="52o_0" departPos="2.20" departSpeed="0.00" departDelay="-0.50" arrival="565.00" arrivalLane="54i_0" arrivalPos="10.00" arrivalSpeed="9.63" duration="422.00" routeLength="1117.80" waitSteps="199" timeLoss="331.17" rerouteNo="0" devices="tripinfo_mixed2.41" vType="moped" speedFactor="0.85" vaporized=""/>
    <tripinfo id="mixed2.74" depart="259.00" departLane="52o_0" departPos="2.20" departSpeed="0.00" departDelay="0.00" arrival="583.00" arrivalLane="54i_2" arrivalPos="10.00" arrivalSpeed="14.31" duration="324.00" routeLength="1117.80" waitSteps="95" timeLoss="252.04" rerouteNo="0" devices="tripinfo_mixed2.74" vType="moped" speedFactor="1.29" vaporized=""/>
    <tripinfo id="mixed2.57" depart="199.00" departLane="52o_0" departPos="2.20" departSpeed="0.00" departDelay="-0.50" arrival="591.00" arrivalLane="54i_0" arrivalPos="10.00" arrivalSpeed="7.98" duration="392.00" routeLength="1117.80" waitSteps="130" timeLoss="261.25" rerouteNo="0" devices="tripinfo_mixed2.57" vType="moped" speedFactor="0.59" vaporized=""/>
    <tripinfo id="mixed2.92" depart="322.00" departLane="52o_1" departPos="2.20" departSpeed="0.00" departDelay="0.00" arrival="592.00" arrivalLane="54i_0" arrivalPos="10.00" arrivalSpeed="7.31" duration="270.00" routeLength="1117.80" waitSteps="90" timeLoss="193.00" rerouteNo="0" devices="tripinfo_mixed2.92" vType="moped" speedFactor="1.13" vaporized=""/>
    <tripinfo id="mixed2.40" depart="140.00" departLane="52o_0" departPos="2.20" departSpeed="0.00" departDelay="0.00" arrival="592.00" arrivalLane="54i_1" arrivalPos="10.00" arrivalSpeed="6.91" duration="452.00" routeLength="1117.80" waitSteps="199" timeLoss="322.42" rerouteNo="0" devices="tripinfo_mixed2.40" vType="moped" speedFactor="0.60" vaporized=""/>
    <tripinfo id="mixed2.31" depart="108.00" departLane="52o_2" departPos="2.20" departSpeed="0.00" departDelay="-0.50" arrival="617.00" arrivalLane="54i_0" arrivalPos="10.00" arrivalSpeed="14.63" duration="509.00" routeLength="1117.80" waitSteps="270" timeLoss="436.10" rerouteNo="0" devices="tripinfo_mixed2.31" vType="moped" speedFactor="1.26" vaporized=""/>
    <tripinfo id="mixed2.60" depart="210.00" departLane="52o_0" departPos="2.20" departSpeed="0.00" departDelay="0.00" arrival="625.00" arrivalLane="54i_0" arrivalPos="10.00" arrivalSpeed="10.57" duration="415.00" routeLength="1117.80" waitSteps="162" timeLoss="327.93" rerouteNo="0" devices="tripinfo_mixed2.60" vType="moped" speedFactor="0.90" vaporized=""/>
    <tripinfo id="mixed2.72" depart="252.00" departLane="52o_0" departPos="2.20" departSpeed="0.00" departDelay="0.00" arrival="630.00" arrivalLane="54i_0" arrivalPos="10.00" arrivalSpeed="10.38" duration="378.00" routeLength="1117.80" waitSteps="125" timeLoss="288.74" rerouteNo="0" devices="tripinfo_mixed2.72" vType="moped" speedFactor="0.87" vaporized=""/>
    <tripinfo id="mixed2.84" depart="294.00" departLane="52o_2" departPos="2.20" departSpeed="0.00" departDelay="0.00" arrival="640.00" arrivalLane="54i_1" arrivalPos="10.00" arrivalSpeed="16.19" duration="346.00" routeLength="1117.80" waitSteps="130" timeLoss="278.50" rerouteNo="0" devices="tripinfo_mixed2.84" vType="moped" speedFactor="1.71" vaporized=""/>
    <tripinfo id="mixed2.32" depart="112.00" departLane="52o_1" departPos="5.10" departSpeed="0.00" departDelay="0.00" arrival="651.00" arrivalLane="54i_0" arrivalPos="10.00" arrivalSpeed="13.31" duration="539.00" routeLength="1114.90" waitSteps="290" timeLoss="467.47" rerouteNo="0" devices="tripinfo_mixed2.32" vType="car" speedFactor="1.08" vaporized=""/>
    <tripinfo id="mixed2.89" depart="311.00" departLane="52o_2" departPos="2.20" departSpeed="0.00" departDelay="-0.50" arrival="680.00" arrivalLane="54i_0" arrivalPos="10.00" arrivalSpeed="13.12" duration="369.00" routeLength="1117.80" waitSteps="160" timeLoss="291.23" rerouteNo="0" devices="tripinfo_mixed2.89" vType="moped" speedFactor="1.13" vaporized=""/>
    <tripinfo id="mixed2.37" depart="129.00" departLane="52o_2" departPos="2.20" departSpeed="0.00" departDelay="-0.50" arrival="680.00" arrivalLane="54i_1" arrivalPos="10.00" arrivalSpeed="14.26" duration="551.00" routeLength="1117.80" waitSteps="292" timeLoss="475.70" rerouteNo="0" devices="tripinfo_mixed2.37" vType="moped" speedFactor="1.19" vaporized=""/>
    <tripinfo id="mixed2.39" depart="136.00" departLane="52o_1" departPos="2.20" departSpeed="0.00" departDelay="-0.50" arrival="682.00" arrivalLane="54i_2" arrivalPos="10.00" arrivalSpeed="15.79" duration="546.00" routeLength="1117.80" waitSteps="267" timeLoss="475.99" rerouteNo="0" devices="tripinfo_mixed2.39" vType="moped" speedFactor="1.40" vaporized=""/>
    <tripinfo id="mixed2.35" depart="122.00" departLane="52o_0" departPos="2.20" departSpeed="0.00" departDelay="-0.50" arrival="721.00" arrivalLane="54i_1" arrivalPos="10.00" arrivalSpeed="13.83" duration="599.00" routeLength="1117.80" waitSteps="318" timeLoss="526.02" rerouteNo="0" devices="tripinfo_mixed2.35" vType="moped" speedFactor="1.25" vaporized=""/>
    <tripinfo id="mixed2.48" depart="168.00" departLane="52o_1" departPos="2.20" departSpeed="0.00" departDelay="0.00" arrival="723.00" arrivalLane="54i_0" arrivalPos="10.00" arrivalSpeed="7.28" duration="555.00" routeLength="1117.80" waitSteps="278" timeLoss="432.08" rerouteNo="0" devices="tripinfo_mixed2.48" vType="moped" speedFactor="0.63" vaporized=""/>
    <tripinfo id="mixed2.91" depart="318.00" departLane="52o_0" departPos="2.20" departSpeed="0.00" departDelay="-0.50" arrival="732.00" arrivalLane="54i_0" arrivalPos="10.00" arrivalSpeed="6.61" duration="414.00" routeLength="1117.80" waitSteps="177" timeLoss="271.36" rerouteNo="0" devices="tripinfo_mixed2.91" vType="moped" speedFactor="0.54" vaporized=""/>
    <tripinfo id="mixed2.51" depart="178.00" departLane="52o_1" departPos="2.20" departSpeed="0.00" departDelay="-0.50" arrival="745.00" arrivalLane="54i_0" arrivalPos="10.00" arrivalSpeed="8.88" duration="567.00" routeLength="1117.80" waitSteps="297" timeLoss="458.74" rerouteNo="0" devices="tripinfo_mixed2.51" vType="moped" speedFactor="0.71" vaporized=""/>
    <tripinfo id="mixed2.34" depart="119.00" departLane="52o_0" departPos="2.20" departSpeed="0.00" departDelay="0.00" arrival="770.00" arrivalLane="54i_0" arrivalPos="10.00" arrivalSpeed="6.87" duration="651.00" routeLength="1117.80" waitSteps="315" timeLoss="498.73" rerouteNo="0" devices="tripinfo_mixed2.34" vType="moped" speedFactor="0.51" vaporized=""/>
    <tripinfo id="mixed2.97" depart="339.00" departLane="52o_0" departPos="2.20" departSpeed="0.00" departDelay="-0.50" arrival="780.00" arrivalLane="54i_0" arrivalPos="10.00" arrivalSpeed="5.80" duration="441.00" routeLength="1117.80" waitSteps="140" timeLoss="219.04" rerouteNo="0" devices="tripinfo_mixed2.97" vType="moped" speedFactor="0.35" vaporized=""/>
    <tripinfo id="mixed2.55" depart="192.00" departLane="52o_0" departPos="2.20" departSpeed="0.00" departDelay="-0.50" arrival="800.00" arrivalLane="54i_0" arrivalPos="10.00" arrivalSpeed="8.96" duration="608.00" routeLength="1117.80" waitSteps="287" timeLoss="493.18" rerouteNo="0" devices="tripinfo_mixed2.55" vType="moped" speedFactor="0.67" vaporized=""/>
    <tripinfo id="mixed2.99" depart="346.00" departLane="52o_0" departPos="2.20" departSpeed="0.00" departDelay="-0.50" arrival="811.00" arrivalLane="54i_1" arrivalPos="10.00" arrivalSpeed="13.21" duration="465.00" routeLength="1117.80" waitSteps="215" timeLoss="388.40" rerouteNo="0" devices="tripinfo_mixed2.99" vType="moped" speedFactor="1.14" vaporized=""/>
    <tripinfo id="mixed2.87" depart="304.00" departLane="52o_2" departPos="2.20" departSpeed="0.00" departDelay="-0.50" arrival="817.00" arrivalLane="54i_0" arrivalPos="10.00" arrivalSpeed="10.90" duration="513.00" routeLength="1117.80" waitSteps="235" timeLoss="426.22" rerouteNo="0" devices="tripinfo_mixed2.87" vType="moped" speedFactor="0.91" vaporized=""/>
    <tripinfo id="mixed2.63" depart="220.00" departLane="52o_1" departPos="2.20" departSpeed="0.00" departDelay="-0.50" arrival="828.00" arrivalLane="54i_0" arrivalPos="10.00" arrivalSpeed="8.84" duration="608.00" routeLength="1117.80" waitSteps="297" timeLoss="507.64" rerouteNo="0" devices="tripinfo_mixed2.63" vType="moped" speedFactor="0.77" vaporized=""/>
    <tripinfo id="mixed2.80" depart="280.00" departLane="52o_2" departPos="2.20" departSpeed="0.00" departDelay="0.00" arrival="830.00" arrivalLane="54i_0" arrivalPos="10.00" arrivalSpeed="6.39" duration="550.00" routeLength="1117.80" waitSteps="210" timeLoss="383.89" rerouteNo="0" devices="tripinfo_mixed2.80" vType="moped" speedFactor="0.46" vaporized=""/>
    <tripinfo id="mixed2.59" depart="206.00" departLane="52o_0" departPos="2.20" departSpeed="0.00" departDelay="-0.50" arrival="840.00" arrivalLane="54i_1" arrivalPos="10.00" arrivalSpeed="15.65" duration="634.00" routeLength="1117.80" waitSteps="350" timeLoss="562.38" rerouteNo="0" devices="tripinfo_mixed2.59" vType="moped" speedFactor="1.33" vaporized=""/>
    <tripinfo id="mixed2.81" depart="283.00" departLane="52o_2" departPos="2.20" departSpeed="0.00" departDelay="-0.50" arrival="843.00" arrivalLane="54i_1" arrivalPos="10.00" arrivalSpeed="12.82" duration="560.00" routeLength="1117.80" waitSteps="273" timeLoss="481.27" rerouteNo="0" devices="tripinfo_mixed2.81" vType="moped" speedFactor="1.08" vaporized=""/>
    <tripinfo id="mixed2.38" depart="133.00" departLane="52o_1" departPos="2.20" departSpeed="0.00" departDelay="0.00" arrival="848.00" arrivalLane="54i_0" arrivalPos="10.00" arrivalSpeed="11.82" duration="715.00" routeLength="1117.80" waitSteps="395" timeLoss="633.41" rerouteNo="0" devices="tripinfo_mixed2.38" vType="moped" speedFactor="1.01" vaporized=""/>
    <tripinfo id="mixed2.42" depart="148.00" departLane="52o_1" departPos="5.10" departSpeed="0.00" departDelay="1.00" arrival="850.00" arrivalLane="54i_2" arrivalPos="10.00" arrivalSpeed="12.74" duration="702.00" routeLength="1114.90" waitSteps="382" timeLoss="628.55" rerouteNo="0" devices="tripinfo_mixed2.42" vType="car" speedFactor="1.05" vaporized=""/>
    <tripinfo id="mixed2.47" depart="164.00" departLane="52o_1" departPos="2.20" departSpeed="0.00" departDelay="-0.50" arrival="861.00" arrivalLane="54i_1" arrivalPos="10.00" arrivalSpeed="9.58" duration="697.00" routeLength="1117.80" waitSteps="362" timeLoss="604.73" rerouteNo="0" devices="tripinfo_mixed2.47" vType="moped" speedFactor="0.84" vaporized=""/>
    <tripinfo id="mixed2.29" depart="101.00" departLane="52o_1" departPos="2.20" departSpeed="0.00" departDelay="-0.50" arrival="866.00" arrivalLane="54i_0" arrivalPos="10.00" arrivalSpeed="5.62" duration="765.00" routeLength="1117.80" waitSteps="352" timeLoss="538.76" rerouteNo="0" devices="tripinfo_mixed2.29" vType="moped" speedFactor="0.34" vaporized=""/>
    <tripinfo id="mixed2.71" depart="248.00" departLane="52o_1" departPos="2.20" departSpeed="0.00" departDelay="-0.50" arrival="872.00" arrivalLane="54i_1" arrivalPos="10.00" arrivalSpeed="16.30" duration="624.00" routeLength="1117.80" waitSteps="321" timeLoss="556.20" rerouteNo="0" devices="tripinfo_mixed2.71" vType="moped" speedFactor="1.58" vaporized=""/>
    <tripinfo id="mixed2.43" depart="150.00" departLane="52o_2" departPos="5.10" departSpeed="0.00" departDelay="-0.50" arrival="887.00" arrivalLane="54i_0" arrivalPos="10.00" arrivalSpeed="12.98" duration="737.00" routeLength="1114.90" waitSteps="435" timeLoss="659.30" rerouteNo="0" devices="tripinfo_mixed2.43" vType="car" speedFactor="0.99" vaporized=""/>
    <tripinfo id="mixed2.46" depart="161.00" departLane="52o_0" departPos="2.20" departSpeed="0.00" departDelay="0.00" arrival="891.00" arrivalLane="54i_0" arrivalPos="10.00" arrivalSpeed="11.38" duration="730.00" routeLength="1117.80" waitSteps="422" timeLoss="644.82" rerouteNo="0" devices="tripinfo_mixed2.46" vType="moped" speedFactor="0.95" vaporized=""/>
    <tripinfo id="mixed2.53" depart="185.00" departLane="52o_2" departPos="5.10" departSpeed="0.00" departDelay="-0.50" arrival="927.00" arrivalLane="54i_2" arrivalPos="10.00" arrivalSpeed="13.96" duration="742.00" routeLength="1114.90" waitSteps="425" timeLoss="679.73" rerouteNo="0" devices="tripinfo_mixed2.53" vType="car" speedFactor="1.24" vaporized=""/>
    <tripinfo id="mixed2.52" depart="182.00" departLane="52o_1" departPos="5.10" departSpeed="0.00" departDelay="0.00" arrival="927.00" arrivalLane="54i_1" arrivalPos="10.00" arrivalSpeed="14.24" duration="745.00" routeLength="1114.90" waitSteps="433" timeLoss="675.93" rerouteNo="0" devices="tripinfo_mixed2.52" vType="car" speedFactor="1.11" vaporized=""/>
    <tripinfo id="mixed2.66" depart="231.00" departLane="52o_2" departPos="2.20" departSpeed="0.00" departDelay="0.00" arrival="929.00" arrivalLane="54i_2" arrivalPos="10.00" arrivalSpeed="12.90" duration="698.00" routeLength="1117.80" waitSteps="348" timeLoss="623.64" rerouteNo="0" devices="tripinfo_mixed2.66" vType="moped" speedFactor="1.23" vaporized=""/>
    <tripinfo id="mixed2.83" depart="290.00" departLane="52o_1" departPos="2.20" departSpeed="0.00" departDelay="-0.50" arrival="933.00" arrivalLane="54i_0" arrivalPos="10.00" arrivalSpeed="10.39" duration="643.00" routeLength="1117.80" waitSteps="300" timeLoss="554.46" rerouteNo="0" devices="tripinfo_mixed2.83" vType="moped" speedFactor="0.88" vaporized=""/>
    <tripinfo id="mixed2.50" depart="175.00" departLane="52o_0" departPos="5.10" departSpeed="0.00" departDelay="0.00" arrival="933.00" arrivalLane="54i_2" arrivalPos="10.00" arrivalSpeed="12.02" duration="758.00" routeLength="1114.90" waitSteps="444" timeLoss="684.08" rerouteNo="0" devices="tripinfo_mixed2.50" vType="car" speedFactor="1.04" vaporized=""/>
    <tripinfo id="mixed2.49" depart="171.00" departLane="52o_2" departPos="2.20" departSpeed="0.00" departDelay="-0.50" arrival="937.00" arrivalLane="54i_0" arrivalPos="10.00" arrivalSpeed="9.61" duration="766.00" routeLength="1117.80" waitSteps="445" timeLoss="668.33" rerouteNo="0" devices="tripinfo_mixed2.49" vType="moped" speedFactor="0.79" vaporized=""/>
    <tripinfo id="mixed2.56" depart="197.00" departLane="52o_1" departPos="5.10" departSpeed="0.00" departDelay="1.00" arrival="937.00" arrivalLane="54i_2" arrivalPos="10.00" arrivalSpeed="14.53" duration="740.00" routeLength="1114.90" waitSteps="425" timeLoss="674.07" rerouteNo="0" devices="tripinfo_mixed2.56" vType="car" speedFactor="1.17" vaporized=""/>
    <tripinfo id="mixed2.54" depart="189.00" departLane="52o_1" departPos="5.10" departSpeed="0.00" departDelay="0.00" arrival="938.00" arrivalLane="54i_1" arrivalPos="10.00" arrivalSpeed="13.10" duration="749.00" routeLength="1114.90" waitSteps="426" timeLoss="676.49" rerouteNo="0" devices="tripinfo_mixed2.54" vType="car" speedFactor="1.06" vaporized=""/>
    <tripinfo id="mixed2.58" depart="203.00" departLane="52o_0" departPos="5.10" departSpeed="0.00" departDelay="0.00" arrival="943.00" arrivalLane="54i_0" arrivalPos="10.00" arrivalSpeed="12.59" duration="740.00" routeLength="1114.90" waitSteps="425" timeLoss="665.37" rerouteNo="0" devices="tripinfo_mixed2.58" vType="car" speedFactor="1.03" vaporized=""/>
    <tripinfo id="mixed2.88" depart="308.00" departLane="52o_1" departPos="2.20" departSpeed="0.00" departDelay="0.00" arrival="951.00" arrivalLane="54i_1" arrivalPos="10.00" arrivalSpeed="9.30" duration="643.00" routeLength="1117.80" waitSteps="314" timeLoss="542.51" rerouteNo="0" devices="tripinfo_mixed2.88" vType="moped" speedFactor="0.77" vaporized=""/>
    <tripinfo id="mixed2.64" depart="224.00" departLane="52o_1" departPos="2.20" departSpeed="0.00" departDelay="0.00" arrival="953.00" arrivalLane="54i_0" arrivalPos="10.00" arrivalSpeed="4.96" duration="729.00" routeLength="1117.80" waitSteps="324" timeLoss="498.64" rerouteNo="0" devices="tripinfo_mixed2.64" vType="moped" speedFactor="0.33" vaporized=""/>