<?xml version="1.0" encoding="UTF-8"?>

<!-- generated on Saturday 16 February 2019 08:00:48 PM IST by SUMO gui Version 0.32.0
<?xml version="1.0" encoding="UTF-8"?>

<configuration xmlns:xsi="http://www.w3.org/2001/XMLSchema-instance" xsi:noNamespaceSchemaLocation="http://sumo.dlr.de/xsd/sumoConfiguration.xsd">

    <input>
        <net-file value="data/single_intersection.net.xml"/>
        <route-files value="data/new_obstacle_10mins.rou.xml"/>
    </input>

    <output>
        <tripinfo-output value="tripinfo.xml"/>
    </output>

    <time>
        <begin value="0"/>
    </time>

    <processing>
        <lateral-resolution value="0.64"/>
        <waiting-time-memory value="60"/>
    </processing>

    <report>
        <verbose value="true"/>
        <no-step-log value="true"/>
    </report>

    <gui_only>
        <start value="true"/>
    </gui_only>

</configuration>
-->

<tripinfos xmlns:xsi="http://www.w3.org/2001/XMLSchema-instance" xsi:noNamespaceSchemaLocation="http://sumo.dlr.de/xsd/tripinfo_file.xsd">
    <tripinfo id="6" depart="15.00" departLane="54o_0" departPos="2.30" departPosLat="0.00" departSpeed="0.00" departDelay="0.00" arrival="37.00" arrivalLane="53i_0" arrivalPos="10.00" arrivalPosLat="1.60" arrivalSpeed="16.88" duration="22.00" routeLength="237.90" waitSteps="0" timeLoss="4.60" rerouteNo="0" devices="tripinfo_6" vType="type2" speedFactor="1.00" vaporized=""/>
    <tripinfo id="4" depart="2.00" departLane="54o_0" departPos="2.30" departPosLat="0.00" departSpeed="0.00" departDelay="2.00" arrival="38.00" arrivalLane="53i_1" arrivalPos="10.00" arrivalPosLat="0.00" arrivalSpeed="12.82" duration="36.00" routeLength="237.90" waitSteps="11" timeLoss="18.90" rerouteNo="0" devices="tripinfo_4" vType="type2" speedFactor="1.00" vaporized=""/>
    <tripinfo id="2" depart="0.00" departLane="54o_0" departPos="2.30" departPosLat="0.00" departSpeed="0.00" departDelay="0.00" arrival="38.00" arrivalLane="53i_0" arrivalPos="10.00" arrivalPosLat="0.00" arrivalSpeed="11.72" duration="38.00" routeLength="237.90" waitSteps="14" timeLoss="21.20" rerouteNo="0" devices="tripinfo_2" vType="type2" speedFactor="1.00" vaporized=""/>
    <tripinfo id="8" depart="17.00" departLane="54o_0" departPos="2.30" departPosLat="0.00" departSpeed="0.00" departDelay="2.00" arrival="39.00" arrivalLane="53i_0" arrivalPos="10.00" arrivalPosLat="1.41" arrivalSpeed="14.50" duration="22.00" routeLength="237.90" waitSteps="0" timeLoss="4.94" rerouteNo="0" devices="tripinfo_8" vType="type2" speedFactor="1.00" vaporized=""/>
    <tripinfo id="3" depart="10.00" departLane="51o_0" departPos="2.30" departPosLat="0.00" departSpeed="0.00" departDelay="10.00" arrival="46.00" arrivalLane="52i_2" arrivalPos="10.00" arrivalPosLat="0.00" arrivalSpeed="12.63" duration="36.00" routeLength="237.90" waitSteps="7" timeLoss="19.07" rerouteNo="0" devices="tripinfo_3" vType="type2" speedFactor="1.00" vaporized=""/>
    <tripinfo id="5" depart="15.00" departLane="51o_0" departPos="2.30" departPosLat="0.00" departSpeed="0.00" departDelay="0.00" arrival="48.00" arrivalLane="52i_2" arrivalPos="10.00" arrivalPosLat="0.00" arrivalSpeed="14.31" duration="33.00" routeLength="237.90" waitSteps="5" timeLoss="15.70" rerouteNo="0" devices="tripinfo_5" vType="type2" speedFactor="1.00" vaporized=""/>
    <tripinfo id="21" depart="60.00" departLane="51o_0" departPos="5.10" departPosLat="0.00" departSpeed="0.00" departDelay="0.00" arrival="82.00" arrivalLane="52i_2" arrivalPos="10.00" arrivalPosLat="0.00" arrivalSpeed="12.43" duration="22.00" routeLength="235.10" waitSteps="0" timeLoss="5.58" rerouteNo="0" devices="tripinfo_21" vType="type4" speedFactor="1.00" vaporized=""/>
    <tripinfo id="23" depart="62.00" departLane="51o_0" departPos="5.10" departPosLat="0.00" departSpeed="0.00" departDelay="2.00" arrival="85.00" arrivalLane="52i_2" arrivalPos="10.00" arrivalPosLat="0.00" arrivalSpeed="11.64" duration="23.00" routeLength="235.10" waitSteps="0" timeLoss="6.42" rerouteNo="0" devices="tripinfo_23" vType="type4" speedFactor="1.00" vaporized=""/>
    <tripinfo id="25" depart="75.00" departLane="51o_0" departPos="5.10" departPosLat="0.00" departSpeed="0.00" departDelay="0.00" arrival="97.00" arrivalLane="52i_2" arrivalPos="10.00" arrivalPosLat="0.00" arrivalSpeed="12.51" duration="22.00" routeLength="235.10" waitSteps="0" timeLoss="5.42" rerouteNo="0" devices="tripinfo_25" vType="type4" speedFactor="1.00" vaporized=""/>
    <tripinfo id="28" depart="77.00" departLane="54o_0" departPos="5.10" departPosLat="0.00" departSpeed="0.00" departDelay="2.00" arrival="117.00" arrivalLane="53i_1" arrivalPos="10.00" arrivalPosLat="1.22" arrivalSpeed="12.30" duration="40.00" routeLength="235.10" waitSteps="10" timeLoss="23.50" rerouteNo="0" devices="tripinfo_28" vType="type4" speedFactor="1.00" vaporized=""/>
    <tripinfo id="10" depart="30.00" departLane="54o_0" departPos="5.10" departPosLat="0.00" departSpeed="0.00" departDelay="0.00" arrival="118.00" arrivalLane="53i_0" arrivalPos="10.00" arrivalPosLat="-0.54" arrivalSpeed="12.66" duration="88.00" routeLength="235.10" waitSteps="59" timeLoss="71.59" rerouteNo="0" devices="tripinfo_10" vType="type3" speedFactor="1.00" vaporized=""/>
    <tripinfo id="12" depart="33.00" departLane="54o_0" departPos="5.10" departPosLat="0.00" departSpeed="0.00" departDelay="3.00" arrival="118.00" arrivalLane="53i_1" arrivalPos="10.00" arrivalPosLat="-0.96" arrivalSpeed="13.03" duration="85.00" routeLength="235.10" waitSteps="56" timeLoss="68.27" rerouteNo="0" devices="tripinfo_12" vType="type3" speedFactor="1.00" vaporized=""/>
    <tripinfo id="26" depart="75.00" departLane="54o_0" departPos="5.10" departPosLat="0.00" departSpeed="0.00" departDelay="0.00" arrival="119.00" arrivalLane="53i_2" arrivalPos="10.00" arrivalPosLat="-1.00" arrivalSpeed="12.38" duration="44.00" routeLength="235.10" waitSteps="15" timeLoss="27.00" rerouteNo="0" devices="tripinfo_26" vType="type4" speedFactor="1.00" vaporized=""/>
    <tripinfo id="30" depart="90.00" departLane="54o_0" departPos="7.20" departPosLat="0.00" departSpeed="0.00" departDelay="0.00" arrival="120.00" arrivalLane="53i_1" arrivalPos="10.00" arrivalPosLat="0.00" arrivalSpeed="10.55" duration="30.00" routeLength="233.00" waitSteps="0" timeLoss="13.91" rerouteNo="0" devices="tripinfo_30" vType="type5" speedFactor="1.00" vaporized=""/>
    <tripinfo id="14" depart="36.00" departLane="54o_0" departPos="5.10" departPosLat="0.00" departSpeed="0.00" departDelay="6.00" arrival="120.00" arrivalLane="53i_0" arrivalPos="10.00" arrivalPosLat="0.00" arrivalSpeed="10.98" duration="84.00" routeLength="235.10" waitSteps="54" timeLoss="67.36" rerouteNo="0" devices="tripinfo_14" vType="type3" speedFactor="1.00" vaporized=""/>
    <tripinfo id="32" depart="93.00" departLane="54o_0" departPos="7.20" departPosLat="0.00" departSpeed="0.00" departDelay="3.00" arrival="122.00" arrivalLane="53i_2" arrivalPos="10.00" arrivalPosLat="0.00" arrivalSpeed="11.76" duration="29.00" routeLength="233.00" waitSteps="0" timeLoss="12.41" rerouteNo="0" devices="tripinfo_32" vType="type5" speedFactor="1.00" vaporized=""/>
    <tripinfo id="16" depart="45.00" departLane="54o_0" departPos="5.10" departPosLat="0.00" departSpeed="0.00" departDelay="0.00" arrival="123.00" arrivalLane="53i_0" arrivalPos="10.00" arrivalPosLat="0.00" arrivalSpeed="12.50" duration="78.00" routeLength="235.10" waitSteps="47" timeLoss="61.10" rerouteNo="0" devices="tripinfo_16" vType="type3" speedFactor="1.00" vaporized=""/>
    <tripinfo id="20" depart="60.00" departLane="54o_0" departPos="5.10" departPosLat="0.00" departSpeed="0.00" departDelay="0.00" arrival="124.00" arrivalLane="53i_1" arrivalPos="10.00" arrivalPosLat="0.00" arrivalSpeed="12.88" duration="64.00" routeLength="235.10" waitSteps="34" timeLoss="47.78" rerouteNo="0" devices="tripinfo_20" vType="type4" speedFactor="1.00" vaporized=""/>
    <tripinfo id="34" depart="97.00" departLane="54o_0" departPos="7.20" departPosLat="0.00" departSpeed="0.00" departDelay="7.00" arrival="124.00" arrivalLane="53i_2" arrivalPos="10.00" arrivalPosLat="0.00" arrivalSpeed="11.37" duration="27.00" routeLength="233.00" waitSteps="0" timeLoss="10.68" rerouteNo="0" devices="tripinfo_34" vType="type5" speedFactor="1.00" vaporized=""/>
    <tripinfo id="18" depart="48.00" departLane="54o_0" departPos="5.10" departPosLat="0.00" departSpeed="0.00" departDelay="3.00" arrival="125.00" arrivalLane="53i_0" arrivalPos="10.00" arrivalPosLat="0.00" arrivalSpeed="12.35" duration="77.00" routeLength="235.10" waitSteps="46" timeLoss="60.31" rerouteNo="0" devices="tripinfo_18" vType="type3" speedFactor="1.00" vaporized=""/>
    <tripinfo id="22" depart="63.00" departLane="54o_0" departPos="5.10" departPosLat="0.00" departSpeed="0.00" departDelay="3.00" arrival="126.00" arrivalLane="53i_1" arrivalPos="10.00" arrivalPosLat="0.00" arrivalSpeed="13.26" duration="63.00" routeLength="235.10" waitSteps="32" timeLoss="46.63" rerouteNo="0" devices="tripinfo_22" vType="type4" speedFactor="1.00" vaporized=""/>
    <tripinfo id="24" depart="66.00" departLane="54o_0" departPos="5.10" departPosLat="0.00" departSpeed="0.00" departDelay="6.00" arrival="128.00" arrivalLane="53i_2" arrivalPos="10.00" arrivalPosLat="0.00" arrivalSpeed="13.36" duration="62.00" routeLength="235.10" waitSteps="32" timeLoss="45.34" rerouteNo="0" devices="tripinfo_24" vType="type4" speedFactor="1.00" vaporized=""/>
    <tripinfo id="29" depart="79.00" departLane="51o_0" departPos="5.10" departPosLat="0.00" departSpeed="0.00" departDelay="4.00" arrival="134.00" arrivalLane="52i_2" arrivalPos="10.00" arrivalPosLat="0.00" arrivalSpeed="11.87" duration="55.00" routeLength="235.10" waitSteps="27" timeLoss="38.74" rerouteNo="0" devices="tripinfo_29" vType="type4" speedFactor="1.00" vaporized=""/>
    <tripinfo id="27" depart="77.00" departLane="51o_0" departPos="5.10" departPosLat="0.00" departSpeed="0.00" departDelay="2.00" arrival="137.00" arrivalLane="52i_2" arrivalPos="10.00" arrivalPosLat="0.00" arrivalSpeed="13.44" duration="60.00" routeLength="235.10" waitSteps="27" timeLoss="43.00" rerouteNo="0" devices="tripinfo_27" vType="type4" speedFactor="1.00" vaporized=""/>
    <tripinfo id="31" depart="90.00" departLane="51o_0" departPos="7.20" departPosLat="0.00" departSpeed="0.00" departDelay="0.00" arrival="140.00" arrivalLane="52i_2" arrivalPos="10.00" arrivalPosLat="0.00" arrivalSpeed="12.28" duration="50.00" routeLength="233.00" waitSteps="16" timeLoss="33.85" rerouteNo="0" devices="tripinfo_31" vType="type5" speedFactor="1.00" vaporized=""/>
    <tripinfo id="33" depart="93.00" departLane="51o_0" departPos="7.20" departPosLat="0.00" departSpeed="0.00" departDelay="3.00" arrival="142.00" arrivalLane="52i_2" arrivalPos="10.00" arrivalPosLat="0.00" arrivalSpeed="10.61" duration="49.00" routeLength="233.00" waitSteps="14" timeLoss="32.58" rerouteNo="0" devices="tripinfo_33" vType="type5" speedFactor="1.00" vaporized=""/>
    <tripinfo id="15" depart="45.00" departLane="51o_0" departPos="5.10" departPosLat="0.00" departSpeed="0.00" departDelay="0.00" arrival="145.00" arrivalLane="52i_2" arrivalPos="10.00" arrivalPosLat="0.00" arrivalSpeed="12.47" duration="100.00" routeLength="235.10" waitSteps="69" timeLoss="83.30" rerouteNo="0" devices="tripinfo_15" vType="type3" speedFactor="1.00" vaporized=""/>
    <tripinfo id="17" depart="48.00" departLane="51o_0" departPos="5.10" departPosLat="0.00" departSpeed="0.00" departDelay="3.00" arrival="147.00" arrivalLane="52i_2" arrivalPos="10.00" arrivalPosLat="0.00" arrivalSpeed="13.25" duration="99.00" routeLength="235.10" waitSteps="65" timeLoss="82.38" rerouteNo="0" devices="tripinfo_17" vType="type3" speedFactor="1.00" vaporized=""/>
    <tripinfo id="35" depart="105.00" departLane="51o_0" departPos="7.20" departPosLat="0.00" departSpeed="0.00" departDelay="0.00" arrival="153.00" arrivalLane="52i_2" arrivalPos="10.00" arrivalPosLat="0.00" arrivalSpeed="11.94" duration="48.00" routeLength="233.00" waitSteps="14" timeLoss="31.65" rerouteNo="0" devices="tripinfo_35" vType="type5" speedFactor="1.00" vaporized=""/>
    <tripinfo id="37" depart="108.00" departLane="51o_0" departPos="7.20" departPosLat="0.00" departSpeed="0.00" departDelay="3.00" arrival="155.00" arrivalLane="52i_2" arrivalPos="10.00" arrivalPosLat="0.00" arrivalSpeed="11.95" duration="47.00" routeLength="233.00" waitSteps="13" timeLoss="30.97" rerouteNo="0" devices="tripinfo_37" vType="type5" speedFactor="1.00" vaporized=""/>
    <tripinfo id="19" depart="51.00" departLane="51o_0" departPos="5.10" departPosLat="0.00" departSpeed="0.00" departDelay="6.00" arrival="158.00" arrivalLane="52i_2" arrivalPos="10.00" arrivalPosLat="0.00" arrivalSpeed="12.03" duration="107.00" routeLength="235.10" waitSteps="67" timeLoss="90.03" rerouteNo="0" devices="tripinfo_19" vType="type3" speedFactor="1.00" vaporized=""/>
    <tripinfo id="13" depart="33.00" departLane="51o_0" departPos="5.10" departPosLat="0.00" departSpeed="0.00" departDelay="3.00" arrival="162.00" arrivalLane="52i_2" arrivalPos="10.00" arrivalPosLat="0.00" arrivalSpeed="12.94" duration="129.00" routeLength="235.10" waitSteps="98" timeLoss="112.40" rerouteNo="0" devices="tripinfo_13" vType="type3" speedFactor="1.00" vaporized=""/>
    <tripinfo id="41" depart="120.00" departLane="51o_0" departPos="10.00" departPosLat="0.00" departSpeed="0.00" departDelay="0.00" arrival="171.00" arrivalLane="52i_2" arrivalPos="10.00" arrivalPosLat="0.00" arrivalSpeed="11.88" duration="51.00" routeLength="230.20" waitSteps="12" timeLoss="34.35" rerouteNo="0" devices="tripinfo_41" vType="type6" speedFactor="1.00" vaporized=""/>
    <tripinfo id="39" depart="112.00" departLane="51o_0" departPos="7.20" departPosLat="0.00" departSpeed="0.00" departDelay="7.00" arrival="173.00" arrivalLane="52i_2" arrivalPos="10.00" arrivalPosLat="0.00" arrivalSpeed="11.23" duration="61.00" routeLength="233.00" waitSteps="11" timeLoss="44.81" rerouteNo="0" devices="tripinfo_39" vType="type5" speedFactor="1.00" vaporized=""/>
    <tripinfo id="45" depart="135.00" departLane="51o_0" departPos="10.00" departPosLat="0.00" departSpeed="0.00" departDelay="0.00" arrival="176.00" arrivalLane="52i_2" arrivalPos="10.00" arrivalPosLat="0.00" arrivalSpeed="12.08" duration="41.00" routeLength="230.20" waitSteps="0" timeLoss="24.60" rerouteNo="0" devices="tripinfo_45" vType="type6" speedFactor="1.00" vaporized=""/>
    <tripinfo id="43" depart="124.00" departLane="51o_0" departPos="10.00" departPosLat="0.00" departSpeed="0.00" departDelay="4.00" arrival="185.00" arrivalLane="52i_2" arrivalPos="10.00" arrivalPosLat="0.00" arrivalSpeed="11.38" duration="61.00" routeLength="230.20" waitSteps="7" timeLoss="44.62" rerouteNo="0" devices="tripinfo_43" vType="type6" speedFactor="1.00" vaporized=""/>
    <tripinfo id="47" depart="140.00" departLane="51o_0" departPos="10.00" departPosLat="0.00" departSpeed="0.00" departDelay="5.00" arrival="187.00" arrivalLane="52i_2" arrivalPos="10.00" arrivalPosLat="0.00" arrivalSpeed="11.94" duration="47.00" routeLength="230.20" waitSteps="6" timeLoss="31.14" rerouteNo="0" devices="tripinfo_47" vType="type6" speedFactor="1.00" vaporized=""/>
    <tripinfo id="51" depart="150.00" departLane="51o_0" departPos="1.70" departPosLat="0.00" departSpeed="0.00" departDelay="0.00" arrival="207.00" arrivalLane="52i_0" arrivalPos="10.00" arrivalPosLat="0.00" arrivalSpeed="5.54" duration="57.00" routeLength="238.50" waitSteps="5" timeLoss="13.27" rerouteNo="0" devices="tripinfo_51" vType="type1" speedFactor="1.00" vaporized=""/>
    <tripinfo id="38" depart="110.00" departLane="54o_0" departPos="7.20" departPosLat="0.00" departSpeed="0.00" departDelay="5.00" arrival="217.00" arrivalLane="53i_1" arrivalPos="10.00" arrivalPosLat="0.00" arrivalSpeed="12.26" duration="107.00" routeLength="233.00" waitSteps="68" timeLoss="90.40" rerouteNo="0" devices="tripinfo_38" vType="type5" speedFactor="1.00" vaporized=""/>
    <tripinfo id="40" depart="120.00" departLane="54o_0" departPos="10.00" departPosLat="0.00" departSpeed="0.00" departDelay="0.00" arrival="217.00" arrivalLane="53i_2" arrivalPos="10.00" arrivalPosLat="0.25" arrivalSpeed="11.96" duration="97.00" routeLength="230.20" waitSteps="64" timeLoss="81.02" rerouteNo="0" devices="tripinfo_40" vType="type6" speedFactor="1.00" vaporized=""/>
    <tripinfo id="36" depart="105.00" departLane="54o_0" departPos="7.20" departPosLat="0.00" departSpeed="0.00" departDelay="0.00" arrival="217.00" arrivalLane="53i_0" arrivalPos="10.00" arrivalPosLat="-0.20" arrivalSpeed="11.40" duration="112.00" routeLength="233.00" waitSteps="79" timeLoss="95.26" rerouteNo="0" devices="tripinfo_36" vType="type5" speedFactor="1.00" vaporized=""/>
    <tripinfo id="46" depart="135.00" departLane="54o_0" departPos="10.00" departPosLat="0.00" departSpeed="0.00" departDelay="0.00" arrival="219.00" arrivalLane="53i_0" arrivalPos="10.00" arrivalPosLat="0.00" arrivalSpeed="10.94" duration="84.00" routeLength="230.20" waitSteps="49" timeLoss="67.95" rerouteNo="0" devices="tripinfo_46" vType="type6" speedFactor="1.00" vaporized=""/>
    <tripinfo id="42" depart="125.00" departLane="54o_0" departPos="10.00" departPosLat="0.00" departSpeed="0.00" departDelay="5.00" arrival="220.00" arrivalLane="53i_2" arrivalPos="10.00" arrivalPosLat="0.00" arrivalSpeed="11.84" duration="95.00" routeLength="230.20" waitSteps="61" timeLoss="78.42" rerouteNo="0" devices="tripinfo_42" vType="type6" speedFactor="1.00" vaporized=""/>
    <tripinfo id="44" depart="128.00" departLane="54o_0" departPos="10.00" departPosLat="0.00" departSpeed="0.00" departDelay="8.00" arrival="222.00" arrivalLane="53i_2" arrivalPos="10.00" arrivalPosLat="0.00" arrivalSpeed="12.12" duration="94.00" routeLength="230.20" waitSteps="59" timeLoss="78.01" rerouteNo="0" devices="tripinfo_44" vType="type6" speedFactor="1.00" vaporized=""/>
    <tripinfo id="48" depart="140.00" departLane="54o_0" departPos="10.00" departPosLat="0.00" departSpeed="0.00" departDelay="5.00" arrival="222.00" arrivalLane="53i_0" arrivalPos="10.00" arrivalPosLat="0.00" arrivalSpeed="11.84" duration="82.00" routeLength="230.20" waitSteps="47" timeLoss="65.82" rerouteNo="0" devices="tripinfo_48" vType="type6" speedFactor="1.00" vaporized=""/>
    <tripinfo id="64" depart="184.00" departLane="54o_0" departPos="2.30" departPosLat="0.00" departSpeed="0.00" departDelay="4.00" arrival="226.00" arrivalLane="53i_2" arrivalPos="10.00" arrivalPosLat="0.00" arrivalSpeed="16.20" duration="42.00" routeLength="237.90" waitSteps="8" timeLoss="25.04" rerouteNo="0" devices="tripinfo_64" vType="type2" speedFactor="1.00" vaporized=""/>
    <tripinfo id="66" depart="195.00" departLane="54o_0" departPos="2.30" departPosLat="0.00" departSpeed="0.00" departDelay="0.00" arrival="226.00" arrivalLane="53i_0" arrivalPos="10.00" arrivalPosLat="0.00" arrivalSpeed="13.26" duration="31.00" routeLength="237.90" waitSteps="0" timeLoss="13.69" rerouteNo="0" devices="tripinfo_66" vType="type2" speedFactor="1.00" vaporized=""/>
    <tripinfo id="68" depart="196.00" departLane="54o_0" departPos="2.30" departPosLat="0.00" departSpeed="0.00" departDelay="1.00" arrival="228.00" arrivalLane="53i_1" arrivalPos="10.00" arrivalPosLat="1.41" arrivalSpeed="13.79" duration="32.00" routeLength="237.90" waitSteps="0" timeLoss="15.51" rerouteNo="0" devices="tripinfo_68" vType="type2" speedFactor="1.00" vaporized=""/>
    <tripinfo id="62" depart="182.00" departLane="54o_0" departPos="2.30" departPosLat="0.00" departSpeed="0.00" departDelay="2.00" arrival="228.00" arrivalLane="53i_2" arrivalPos="10.00" arrivalPosLat="0.00" arrivalSpeed="16.35" duration="46.00" routeLength="237.90" waitSteps="9" timeLoss="28.87" rerouteNo="0" devices="tripinfo_62" vType="type2" speedFactor="1.00" vaporized=""/>
    <tripinfo id="60" depart="180.00" departLane="54o_0" departPos="2.30" departPosLat="0.00" departSpeed="0.00" departDelay="0.00" arrival="229.00" arrivalLane="53i_0" arrivalPos="10.00" arrivalPosLat="0.00" arrivalSpeed="14.32" duration="49.00" routeLength="237.90" waitSteps="11" timeLoss="31.63" rerouteNo="0" devices="tripinfo_60" vType="type2" speedFactor="1.00" vaporized=""/>
    <tripinfo id="50" depart="150.00" departLane="54o_0" departPos="1.70" departPosLat="0.00" departSpeed="0.00" departDelay="0.00" arrival="230.00" arrivalLane="53i_0" arrivalPos="10.00" arrivalPosLat="1.27" arrivalSpeed="5.08" duration="80.00" routeLength="238.50" waitSteps="28" timeLoss="36.75" rerouteNo="0" devices="tripinfo_50" vType="type1" speedFactor="1.00" vaporized=""/>
    <tripinfo id="52" depart="152.00" departLane="54o_0" departPos="1.70" departPosLat="0.00" departSpeed="0.00" departDelay="2.00" arrival="232.00" arrivalLane="53i_1" arrivalPos="10.00" arrivalPosLat="0.00" arrivalSpeed="5.42" duration="80.00" routeLength="238.50" waitSteps="26" timeLoss="36.14" rerouteNo="0" devices="tripinfo_52" vType="type1" speedFactor="1.00" vaporized=""/>
    <tripinfo id="9" depart="18.00" departLane="51o_0" departPos="2.30" departPosLat="0.00" departSpeed="0.00" departDelay="3.00" arrival="234.00" arrivalLane="52i_2" arrivalPos="10.00" arrivalPosLat="0.00" arrivalSpeed="15.06" duration="216.00" routeLength="237.90" waitSteps="176" timeLoss="199.20" rerouteNo="0" devices="tripinfo_9" vType="type2" speedFactor="1.00" vaporized=""/>
    <tripinfo id="56" depart="165.00" departLane="54o_0" departPos="1.70" departPosLat="0.00" departSpeed="0.00" departDelay="0.00" arrival="234.00" arrivalLane="53i_0" arrivalPos="10.00" arrivalPosLat="0.00" arrivalSpeed="5.31" duration="69.00" routeLength="238.50" waitSteps="16" timeLoss="25.14" rerouteNo="0" devices="tripinfo_56" vType="type1" speedFactor="1.00" vaporized=""/>
    <tripinfo id="54" depart="155.00" departLane="54o_0" departPos="1.70" departPosLat="0.00" departSpeed="0.00" departDelay="5.00" arrival="234.00" arrivalLane="53i_1" arrivalPos="10.00" arrivalPosLat="-1.31" arrivalSpeed="5.05" duration="79.00" routeLength="238.50" waitSteps="25" timeLoss="35.33" rerouteNo="0" devices="tripinfo_54" vType="type1" speedFactor="1.00" vaporized=""/>
    <tripinfo id="58" depart="168.00" departLane="54o_0" departPos="1.70" departPosLat="0.00" departSpeed="0.00" departDelay="3.00" arrival="235.00" arrivalLane="53i_0" arrivalPos="10.00" arrivalPosLat="0.00" arrivalSpeed="5.35" duration="67.00" routeLength="238.50" waitSteps="14" timeLoss="23.85" rerouteNo="0" devices="tripinfo_58" vType="type1" speedFactor="1.00" vaporized=""/>
    <tripinfo id="61" depart="180.00" departLane="51o_0" departPos="2.30" departPosLat="0.00" departSpeed="0.00" departDelay="0.00" arrival="243.00" arrivalLane="52i_2" arrivalPos="10.00" arrivalPosLat="0.77" arrivalSpeed="16.06" duration="63.00" routeLength="237.90" waitSteps="30" timeLoss="46.34" rerouteNo="0" devices="tripinfo_61" vType="type2" speedFactor="1.00" vaporized=""/>
    <tripinfo id="71" depart="210.00" departLane="51o_0" departPos="5.10" departPosLat="0.00" departSpeed="0.00" departDelay="0.00" arrival="244.00" arrivalLane="52i_2" arrivalPos="10.00" arrivalPosLat="-0.74" arrivalSpeed="11.59" duration="34.00" routeLength="235.10" waitSteps="2" timeLoss="17.29" rerouteNo="0" devices="tripinfo_71" vType="type3" speedFactor="1.00" vaporized=""/>
    <tripinfo id="53" depart="152.00" departLane="51o_0" departPos="1.70" departPosLat="0.00" departSpeed="0.00" departDelay="2.00" arrival="244.00" arrivalLane="52i_0" arrivalPos="10.00" arrivalPosLat="0.00" arrivalSpeed="5.25" duration="92.00" routeLength="238.50" waitSteps="32" timeLoss="48.19" rerouteNo="0" devices="tripinfo_53" vType="type1" speedFactor="1.00" vaporized=""/>
    <tripinfo id="63" depart="181.00" departLane="51o_0" departPos="2.30" departPosLat="0.00" departSpeed="0.00" departDelay="1.00" arrival="246.00" arrivalLane="52i_2" arrivalPos="10.00" arrivalPosLat="1.15" arrivalSpeed="12.30" duration="65.00" routeLength="237.90" waitSteps="30" timeLoss="48.08" rerouteNo="0" devices="tripinfo_63" vType="type2" speedFactor="1.00" vaporized=""/>
    <tripinfo id="67" depart="197.00" departLane="51o_0" departPos="2.30" departPosLat="0.00" departSpeed="0.00" departDelay="2.00" arrival="247.00" arrivalLane="52i_2" arrivalPos="10.00" arrivalPosLat="-0.73" arrivalSpeed="12.20" duration="50.00" routeLength="237.90" waitSteps="17" timeLoss="33.19" rerouteNo="0" devices="tripinfo_67" vType="type2" speedFactor="1.00" vaporized=""/>
    <tripinfo id="55" depart="165.00" departLane="51o_0" departPos="1.70" departPosLat="0.00" departSpeed="0.00" departDelay="0.00" arrival="247.00" arrivalLane="52i_0" arrivalPos="10.00" arrivalPosLat="0.00" arrivalSpeed="5.31" duration="82.00" routeLength="238.50" waitSteps="26" timeLoss="38.91" rerouteNo="0" devices="tripinfo_55" vType="type1" speedFactor="1.00" vaporized=""/>
    <tripinfo id="65" depart="195.00" departLane="51o_0" departPos="2.30" departPosLat="0.00" departSpeed="0.00" departDelay="0.00" arrival="248.00" arrivalLane="52i_2" arrivalPos="10.00" arrivalPosLat="1.15" arrivalSpeed="15.09" duration="53.00" routeLength="237.90" waitSteps="23" timeLoss="35.74" rerouteNo="0" devices="tripinfo_65" vType="type2" speedFactor="1.00" vaporized=""/>
    <tripinfo id="69" depart="199.00" departLane="51o_0" departPos="2.30" departPosLat="0.00" departSpeed="0.00" departDelay="4.00" arrival="249.00" arrivalLane="52i_2" arrivalPos="10.00" arrivalPosLat="0.00" arrivalSpeed="14.21" duration="50.00" routeLength="237.90" waitSteps="17" timeLoss="33.15" rerouteNo="0" devices="tripinfo_69" vType="type2" speedFactor="1.00" vaporized=""/>
    <tripinfo id="57" depart="167.00" departLane="51o_0" departPos="1.70" departPosLat="0.00" departSpeed="0.00" departDelay="2.00" arrival="249.00" arrivalLane="52i_0" arrivalPos="10.00" arrivalPosLat="0.00" arrivalSpeed="5.28" duration="82.00" routeLength="238.50" waitSteps="27" timeLoss="38.62" rerouteNo="0" devices="tripinfo_57" vType="type1" speedFactor="1.00" vaporized=""/>
    <tripinfo id="59" depart="170.00" departLane="51o_0" departPos="1.70" departPosLat="0.00" departSpeed="0.00" departDelay="5.00" arrival="251.00" arrivalLane="52i_0" arrivalPos="10.00" arrivalPosLat="0.00" arrivalSpeed="5.10" duration="81.00" routeLength="238.50" waitSteps="26" timeLoss="37.44" rerouteNo="0" devices="tripinfo_59" vType="type1" speedFactor="1.00" vaporized=""/>
    <tripinfo id="75" depart="225.00" departLane="51o_0" departPos="5.10" departPosLat="0.00" departSpeed="0.00" departDelay="0.00" arrival="253.00" arrivalLane="52i_2" arrivalPos="10.00" arrivalPosLat="0.00" arrivalSpeed="12.68" duration="28.00" routeLength="235.10" waitSteps="0" timeLoss="11.70" rerouteNo="0" devices="tripinfo_75" vType="type3" speedFactor="1.00" vaporized=""/>
    <tripinfo id="73" depart="212.00" departLane="51o_0" departPos="5.10" departPosLat="0.00" departSpeed="0.00" departDelay="2.00" arrival="258.00" arrivalLane="52i_2" arrivalPos="10.00" arrivalPosLat="0.00" arrivalSpeed="13.15" duration="46.00" routeLength="235.10" waitSteps="14" timeLoss="29.45" rerouteNo="0" devices="tripinfo_73" vType="type3" speedFactor="1.00" vaporized=""/>
    <tripinfo id="77" depart="228.00" departLane="51o_0" departPos="5.10" departPosLat="0.00" departSpeed="0.00" departDelay="3.00" arrival="260.00" arrivalLane="52i_2" arrivalPos="10.00" arrivalPosLat="0.00" arrivalSpeed="11.61" duration="32.00" routeLength="235.10" waitSteps="1" timeLoss="15.46" rerouteNo="0" devices="tripinfo_77" vType="type3" speedFactor="1.00" vaporized=""/>
    <tripinfo id="79" depart="231.00" departLane="51o_0" departPos="5.10" departPosLat="0.00" departSpeed="0.00" departDelay="6.00" arrival="262.00" arrivalLane="52i_2" arrivalPos="10.00" arrivalPosLat="0.00" arrivalSpeed="12.15" duration="31.00" routeLength="235.10" waitSteps="0" timeLoss="14.64" rerouteNo="0" devices="tripinfo_79" vType="type3" speedFactor="1.00" vaporized=""/>
    <tripinfo id="85" depart="255.00" departLane="51o_0" departPos="5.10" departPosLat="0.00" departSpeed="0.00" departDelay="0.00" arrival="278.00" arrivalLane="52i_2" arrivalPos="10.00" arrivalPosLat="0.00" arrivalSpeed="11.51" duration="23.00" routeLength="235.10" waitSteps="0" timeLoss="6.05" rerouteNo="0" devices="tripinfo_85" vType="type4" speedFactor="1.00" vaporized=""/>
    <tripinfo id="87" depart="257.00" departLane="51o_0" departPos="5.10" departPosLat="0.00" departSpeed="0.00" departDelay="2.00" arrival="284.00" arrivalLane="52i_2" arrivalPos="10.00" arrivalPosLat="0.00" arrivalSpeed="13.21" duration="27.00" routeLength="235.10" waitSteps="0" timeLoss="10.38" rerouteNo="0" devices="tripinfo_87" vType="type4" speedFactor="1.00" vaporized=""/>
    <tripinfo id="89" depart="260.00" departLane="51o_0" departPos="5.10" departPosLat="0.00" departSpeed="0.00" departDelay="5.00" arrival="286.00" arrivalLane="52i_2" arrivalPos="10.00" arrivalPosLat="0.00" arrivalSpeed="12.60" duration="26.00" routeLength="235.10" waitSteps="0" timeLoss="9.67" rerouteNo="0" devices="tripinfo_89" vType="type4" speedFactor="1.00" vaporized=""/>
    <tripinfo id="81" depart="240.00" departLane="51o_0" departPos="5.10" departPosLat="0.00" departSpeed="0.00" departDelay="0.00" arrival="289.00" arrivalLane="52i_2" arrivalPos="10.00" arrivalPosLat="0.00" arrivalSpeed="11.24" duration="49.00" routeLength="235.10" waitSteps="20" timeLoss="32.74" rerouteNo="0" devices="tripinfo_81" vType="type4" speedFactor="1.00" vaporized=""/>
    <tripinfo id="83" depart="243.00" departLane="51o_0" departPos="5.10" departPosLat="0.00" departSpeed="0.00" departDelay="3.00" arrival="291.00" arrivalLane="52i_2" arrivalPos="10.00" arrivalPosLat="0.00" arrivalSpeed="12.11" duration="48.00" routeLength="235.10" waitSteps="19" timeLoss="31.70" rerouteNo="0" devices="tripinfo_83" vType="type4" speedFactor="1.00" vaporized=""/>