<?xml version="1.0" encoding="UTF-8"?>

<!-- generated on Sunday 20 January 2019 01:31:48 PM IST by SUMO gui Version 0.32.0
<?xml version="1.0" encoding="UTF-8"?>

<configuration xmlns:xsi="http://www.w3.org/2001/XMLSchema-instance" xsi:noNamespaceSchemaLocation="http://sumo.dlr.de/xsd/sumoConfiguration.xsd">

    <input>
        <net-file value="data/cross_2lanes.net.xml"/>
        <route-files value="data/cross.rou.xml"/>
        <additional-files value="data/cross.det.xml"/>
    </input>

    <output>
        <tripinfo-output value="tripinfo.xml"/>
    </output>

    <time>
        <begin value="0"/>
    </time>

    <processing>
        <lateral-resolution value="0.64"/>
    </processing>

    <report>
        <verbose value="true"/>
        <no-step-log value="true"/>
    </report>

    <gui_only>
        <start value="true"/>
    </gui_only>

</configuration>
-->

<tripinfos xmlns:xsi="http://www.w3.org/2001/XMLSchema-instance" xsi:noNamespaceSchemaLocation="http://sumo.dlr.de/xsd/tripinfo_file.xsd">
    <tripinfo id="0" depart="5.00" departLane="51o_0" departPos="2.30" departPosLat="0.00" departSpeed="0.00" departDelay="0.00" arrival="89.00" arrivalLane="52i_0" arrivalPos="10.00" arrivalPosLat="0.00" arrivalSpeed="14.47" duration="84.00" routeLength="1017.90" waitSteps="0" timeLoss="11.59" rerouteNo="0" devices="tripinfo_0" vType="type2" speedFactor="1.00" vaporized=""/>
    <tripinfo id="1" depart="7.00" departLane="51o_0" departPos="2.30" departPosLat="0.00" departSpeed="0.00" departDelay="2.00" arrival="90.00" arrivalLane="54i_0" arrivalPos="10.00" arrivalPosLat="0.00" arrivalSpeed="12.79" duration="83.00" routeLength="1000.20" waitSteps="0" timeLoss="11.76" rerouteNo="0" devices="tripinfo_1" vType="type2" speedFactor="1.00" vaporized=""/>
    <tripinfo id="2" depart="8.00" departLane="51o_0" departPos="2.30" departPosLat="0.00" departSpeed="0.00" departDelay="3.00" arrival="93.00" arrivalLane="53i_0" arrivalPos="10.00" arrivalPosLat="0.00" arrivalSpeed="10.20" duration="85.00" routeLength="1016.17" waitSteps="0" timeLoss="13.23" rerouteNo="0" devices="tripinfo_2" vType="type2" speedFactor="1.00" vaporized=""/>
    <tripinfo id="12" depart="15.00" departLane="51o_0" departPos="5.10" departPosLat="0.00" departSpeed="0.00" departDelay="0.00" arrival="97.00" arrivalLane="52i_0" arrivalPos="10.00" arrivalPosLat="0.00" arrivalSpeed="11.90" duration="82.00" routeLength="1015.10" waitSteps="0" timeLoss="10.03" rerouteNo="0" devices="tripinfo_12" vType="type3" speedFactor="1.00" vaporized=""/>
    <tripinfo id="11" depart="18.00" departLane="53o_0" departPos="5.10" departPosLat="0.00" departSpeed="0.00" departDelay="3.00" arrival="99.00" arrivalLane="52i_0" arrivalPos="10.00" arrivalPosLat="0.00" arrivalSpeed="10.98" duration="81.00" routeLength="1013.37" waitSteps="0" timeLoss="9.60" rerouteNo="0" devices="tripinfo_11" vType="type3" speedFactor="1.00" vaporized=""/>
    <tripinfo id="10" depart="15.00" departLane="53o_0" departPos="5.10" departPosLat="0.00" departSpeed="0.00" departDelay="0.00" arrival="100.00" arrivalLane="51i_0" arrivalPos="10.00" arrivalPosLat="0.00" arrivalSpeed="11.74" duration="85.00" routeLength="997.40" waitSteps="0" timeLoss="14.05" rerouteNo="0" devices="tripinfo_10" vType="type3" speedFactor="1.00" vaporized=""/>
    <tripinfo id="9" depart="10.00" departLane="53o_0" departPos="2.30" departPosLat="0.00" departSpeed="0.00" departDelay="0.00" arrival="102.00" arrivalLane="54i_0" arrivalPos="10.00" arrivalPosLat="0.00" arrivalSpeed="14.07" duration="92.00" routeLength="1017.90" waitSteps="6" timeLoss="19.75" rerouteNo="0" devices="tripinfo_9" vType="type2" speedFactor="1.00" vaporized=""/>
    <tripinfo id="18" depart="20.00" departLane="52o_0" departPos="5.10" departPosLat="0.00" departSpeed="0.00" departDelay="0.00" arrival="107.00" arrivalLane="51i_0" arrivalPos="10.00" arrivalPosLat="0.00" arrivalSpeed="11.82" duration="87.00" routeLength="1015.10" waitSteps="2" timeLoss="15.68" rerouteNo="0" devices="tripinfo_18" vType="type3" speedFactor="1.00" vaporized=""/>
    <tripinfo id="7" depart="11.00" departLane="52o_0" departPos="2.30" departPosLat="0.00" departSpeed="0.00" departDelay="1.00" arrival="109.00" arrivalLane="54i_0" arrivalPos="10.00" arrivalPosLat="-0.09" arrivalSpeed="13.05" duration="98.00" routeLength="1016.17" waitSteps="11" timeLoss="26.44" rerouteNo="0" devices="tripinfo_7" vType="type2" speedFactor="1.00" vaporized=""/>
    <tripinfo id="20" depart="26.00" departLane="52o_0" departPos="5.10" departPosLat="0.00" departSpeed="0.00" departDelay="1.00" arrival="109.00" arrivalLane="53i_1" arrivalPos="10.00" arrivalPosLat="0.00" arrivalSpeed="11.84" duration="83.00" routeLength="997.40" waitSteps="0" timeLoss="11.91" rerouteNo="0" devices="tripinfo_20" vType="type4" speedFactor="1.00" vaporized=""/>
    <tripinfo id="19" depart="23.00" departLane="52o_0" departPos="5.10" departPosLat="0.00" departSpeed="0.00" departDelay="3.00" arrival="109.00" arrivalLane="54i_1" arrivalPos="10.00" arrivalPosLat="-0.74" arrivalSpeed="11.79" duration="86.00" routeLength="1013.37" waitSteps="0" timeLoss="14.22" rerouteNo="0" devices="tripinfo_19" vType="type3" speedFactor="1.00" vaporized=""/>
    <tripinfo id="8" depart="13.00" departLane="52o_0" departPos="2.30" departPosLat="0.00" departSpeed="0.00" departDelay="3.00" arrival="110.00" arrivalLane="53i_0" arrivalPos="10.00" arrivalPosLat="0.00" arrivalSpeed="12.57" duration="97.00" routeLength="1000.20" waitSteps="10" timeLoss="26.18" rerouteNo="0" devices="tripinfo_8" vType="type2" speedFactor="1.00" vaporized=""/>
    <tripinfo id="6" depart="10.00" departLane="52o_0" departPos="2.30" departPosLat="0.00" departSpeed="0.00" departDelay="0.00" arrival="111.00" arrivalLane="51i_0" arrivalPos="10.00" arrivalPosLat="0.00" arrivalSpeed="13.73" duration="101.00" routeLength="1017.90" waitSteps="14" timeLoss="29.14" rerouteNo="0" devices="tripinfo_6" vType="type2" speedFactor="1.00" vaporized=""/>
    <tripinfo id="15" depart="20.00" departLane="54o_0" departPos="5.10" departPosLat="0.00" departSpeed="0.00" departDelay="0.00" arrival="116.00" arrivalLane="53i_0" arrivalPos="10.00" arrivalPosLat="0.00" arrivalSpeed="12.64" duration="96.00" routeLength="1015.10" waitSteps="7" timeLoss="24.56" rerouteNo="0" devices="tripinfo_15" vType="type3" speedFactor="1.00" vaporized=""/>
    <tripinfo id="16" depart="23.00" departLane="54o_0" departPos="5.10" departPosLat="0.00" departSpeed="0.00" departDelay="3.00" arrival="117.00" arrivalLane="51i_1" arrivalPos="10.00" arrivalPosLat="-0.74" arrivalSpeed="13.12" duration="94.00" routeLength="1013.37" waitSteps="6" timeLoss="22.01" rerouteNo="0" devices="tripinfo_16" vType="type3" speedFactor="1.00" vaporized=""/>
    <tripinfo id="17" depart="26.00" departLane="54o_0" departPos="5.10" departPosLat="0.00" departSpeed="0.00" departDelay="6.00" arrival="118.00" arrivalLane="52i_0" arrivalPos="10.00" arrivalPosLat="0.00" arrivalSpeed="13.03" duration="92.00" routeLength="997.40" waitSteps="7" timeLoss="21.56" rerouteNo="0" devices="tripinfo_17" vType="type3" speedFactor="1.00" vaporized=""/>
    <tripinfo id="4" depart="7.00" departLane="54o_0" departPos="2.30" departPosLat="0.00" departSpeed="0.00" departDelay="2.00" arrival="118.00" arrivalLane="51i_0" arrivalPos="10.00" arrivalPosLat="0.00" arrivalSpeed="13.84" duration="111.00" routeLength="1016.17" waitSteps="24" timeLoss="39.16" rerouteNo="0" devices="tripinfo_4" vType="type2" speedFactor="1.00" vaporized=""/>
    <tripinfo id="3" depart="5.00" departLane="54o_0" departPos="2.30" departPosLat="0.00" departSpeed="0.00" departDelay="0.00" arrival="119.00" arrivalLane="53i_0" arrivalPos="10.00" arrivalPosLat="0.00" arrivalSpeed="13.00" duration="114.00" routeLength="1017.90" waitSteps="27" timeLoss="42.25" rerouteNo="0" devices="tripinfo_3" vType="type2" speedFactor="1.00" vaporized=""/>
    <tripinfo id="27" depart="30.00" departLane="54o_0" departPos="5.10" departPosLat="0.00" departSpeed="0.00" departDelay="0.00" arrival="119.00" arrivalLane="53i_1" arrivalPos="10.00" arrivalPosLat="0.00" arrivalSpeed="12.55" duration="89.00" routeLength="1015.10" waitSteps="2" timeLoss="17.05" rerouteNo="0" devices="tripinfo_27" vType="type4" speedFactor="1.00" vaporized=""/>
    <tripinfo id="28" depart="33.00" departLane="54o_0" departPos="5.10" departPosLat="0.00" departSpeed="0.00" departDelay="3.00" arrival="120.00" arrivalLane="51i_0" arrivalPos="10.00" arrivalPosLat="0.00" arrivalSpeed="10.59" duration="87.00" routeLength="1013.37" waitSteps="0" timeLoss="15.52" rerouteNo="0" devices="tripinfo_28" vType="type4" speedFactor="1.00" vaporized=""/>
    <tripinfo id="5" depart="10.00" departLane="54o_0" departPos="2.30" departPosLat="0.00" departSpeed="0.00" departDelay="0.00" arrival="121.00" arrivalLane="52i_0" arrivalPos="10.00" arrivalPosLat="0.00" arrivalSpeed="12.72" duration="111.00" routeLength="1000.20" waitSteps="23" timeLoss="40.27" rerouteNo="0" devices="tripinfo_5" vType="type2" speedFactor="1.00" vaporized=""/>
    <tripinfo id="24" depart="25.00" departLane="51o_0" departPos="5.10" departPosLat="0.00" departSpeed="0.00" departDelay="0.00" arrival="123.00" arrivalLane="52i_0" arrivalPos="10.00" arrivalPosLat="0.00" arrivalSpeed="13.33" duration="98.00" routeLength="1015.10" waitSteps="11" timeLoss="26.73" rerouteNo="0" devices="tripinfo_24" vType="type4" speedFactor="1.00" vaporized=""/>
    <tripinfo id="13" depart="18.00" departLane="51o_0" departPos="5.10" departPosLat="0.00" departSpeed="0.00" departDelay="3.00" arrival="123.00" arrivalLane="54i_0" arrivalPos="10.00" arrivalPosLat="0.00" arrivalSpeed="12.11" duration="105.00" routeLength="997.40" waitSteps="20" timeLoss="34.04" rerouteNo="0" devices="tripinfo_13" vType="type3" speedFactor="1.00" vaporized=""/>
    <tripinfo id="14" depart="21.00" departLane="51o_0" departPos="5.10" departPosLat="0.00" departSpeed="0.00" departDelay="6.00" arrival="123.00" arrivalLane="53i_0" arrivalPos="10.00" arrivalPosLat="0.00" arrivalSpeed="12.67" duration="102.00" routeLength="1013.37" waitSteps="16" timeLoss="30.61" rerouteNo="0" devices="tripinfo_14" vType="type3" speedFactor="1.00" vaporized=""/>
    <tripinfo id="25" depart="30.00" departLane="51o_0" departPos="5.10" departPosLat="0.00" departSpeed="0.00" departDelay="0.00" arrival="125.00" arrivalLane="54i_0" arrivalPos="10.00" arrivalPosLat="0.00" arrivalSpeed="9.71" duration="95.00" routeLength="997.40" waitSteps="9" timeLoss="24.69" rerouteNo="0" devices="tripinfo_25" vType="type4" speedFactor="1.00" vaporized=""/>
    <tripinfo id="36" depart="40.00" departLane="51o_0" departPos="7.20" departPosLat="0.00" departSpeed="0.00" departDelay="0.00" arrival="125.00" arrivalLane="52i_1" arrivalPos="10.00" arrivalPosLat="0.00" arrivalSpeed="11.90" duration="85.00" routeLength="1013.00" waitSteps="0" timeLoss="13.81" rerouteNo="0" devices="tripinfo_36" vType="type5" speedFactor="1.00" vaporized=""/>
    <tripinfo id="26" depart="33.00" departLane="51o_0" departPos="5.10" departPosLat="0.00" departSpeed="0.00" departDelay="3.00" arrival="126.00" arrivalLane="53i_0" arrivalPos="10.00" arrivalPosLat="0.00" arrivalSpeed="12.82" duration="93.00" routeLength="1013.37" waitSteps="6" timeLoss="20.92" rerouteNo="0" devices="tripinfo_26" vType="type4" speedFactor="1.00" vaporized=""/>
    <tripinfo id="21" depart="25.00" departLane="53o_0" departPos="5.10" departPosLat="0.00" departSpeed="0.00" departDelay="0.00" arrival="131.00" arrivalLane="54i_0" arrivalPos="10.00" arrivalPosLat="0.00" arrivalSpeed="13.11" duration="106.00" routeLength="1015.10" waitSteps="24" timeLoss="34.38" rerouteNo="0" devices="tripinfo_21" vType="type4" speedFactor="1.00" vaporized=""/>
    <tripinfo id="23" depart="31.00" departLane="53o_0" departPos="5.10" departPosLat="0.00" departSpeed="0.00" departDelay="6.00" arrival="131.00" arrivalLane="52i_0" arrivalPos="10.00" arrivalPosLat="0.00" arrivalSpeed="10.85" duration="100.00" routeLength="1013.37" waitSteps="14" timeLoss="28.42" rerouteNo="0" devices="tripinfo_23" vType="type4" speedFactor="1.00" vaporized=""/>
    <tripinfo id="22" depart="28.00" departLane="53o_0" departPos="5.10" departPosLat="0.00" departSpeed="0.00" departDelay="3.00" arrival="132.00" arrivalLane="51i_0" arrivalPos="10.00" arrivalPosLat="0.00" arrivalSpeed="12.48" duration="104.00" routeLength="997.40" waitSteps="19" timeLoss="33.21" rerouteNo="0" devices="tripinfo_22" vType="type4" speedFactor="1.00" vaporized=""/>
    <tripinfo id="35" depart="45.00" departLane="53o_0" departPos="7.20" departPosLat="0.00" departSpeed="0.00" departDelay="5.00" arrival="133.00" arrivalLane="52i_0" arrivalPos="10.00" arrivalPosLat="0.00" arrivalSpeed="11.33" duration="88.00" routeLength="1011.27" waitSteps="0" timeLoss="16.88" rerouteNo="0" devices="tripinfo_35" vType="type5" speedFactor="1.00" vaporized=""/>
    <tripinfo id="33" depart="35.00" departLane="53o_0" departPos="7.20" departPosLat="0.00" departSpeed="0.00" departDelay="0.00" arrival="133.00" arrivalLane="54i_0" arrivalPos="10.00" arrivalPosLat="0.00" arrivalSpeed="11.68" duration="98.00" routeLength="1013.00" waitSteps="4" timeLoss="26.73" rerouteNo="0" devices="tripinfo_33" vType="type5" speedFactor="1.00" vaporized=""/>
    <tripinfo id="45" depart="50.00" departLane="53o_0" departPos="10.00" departPosLat="0.00" departSpeed="0.00" departDelay="0.00" arrival="135.00" arrivalLane="54i_0" arrivalPos="10.00" arrivalPosLat="0.00" arrivalSpeed="11.86" duration="85.00" routeLength="1010.20" waitSteps="0" timeLoss="13.88" rerouteNo="0" devices="tripinfo_45" vType="type6" speedFactor="1.00" vaporized=""/>
    <tripinfo id="34" depart="40.00" departLane="53o_0" departPos="7.20" departPosLat="0.00" departSpeed="0.00" departDelay="5.00" arrival="135.00" arrivalLane="51i_0" arrivalPos="10.00" arrivalPosLat="0.00" arrivalSpeed="11.72" duration="95.00" routeLength="995.30" waitSteps="4" timeLoss="24.61" rerouteNo="0" devices="tripinfo_34" vType="type5" speedFactor="1.00" vaporized=""/>
    <tripinfo id="42" depart="50.00" departLane="52o_0" departPos="10.00" departPosLat="0.00" departSpeed="0.00" departDelay="5.00" arrival="137.00" arrivalLane="51i_0" arrivalPos="10.00" arrivalPosLat="0.00" arrivalSpeed="11.08" duration="87.00" routeLength="1010.20" waitSteps="0" timeLoss="15.69" rerouteNo="0" devices="tripinfo_42" vType="type6" speedFactor="1.00" vaporized=""/>
    <tripinfo id="31" depart="40.00" departLane="52o_0" departPos="7.20" departPosLat="0.00" departSpeed="0.00" departDelay="5.00" arrival="141.00" arrivalLane="54i_0" arrivalPos="10.00" arrivalPosLat="0.00" arrivalSpeed="11.63" duration="101.00" routeLength="1011.27" waitSteps="9" timeLoss="29.23" rerouteNo="0" devices="tripinfo_31" vType="type5" speedFactor="1.00" vaporized=""/>
    <tripinfo id="30" depart="35.00" departLane="52o_0" departPos="7.20" departPosLat="0.00" departSpeed="0.00" departDelay="0.00" arrival="141.00" arrivalLane="51i_0" arrivalPos="10.00" arrivalPosLat="0.00" arrivalSpeed="11.64" duration="106.00" routeLength="1013.00" waitSteps="15" timeLoss="34.32" rerouteNo="0" devices="tripinfo_30" vType="type5" speedFactor="1.00" vaporized=""/>
    <tripinfo id="32" depart="45.00" departLane="52o_0" departPos="7.20" departPosLat="0.00" departSpeed="0.00" departDelay="10.00" arrival="142.00" arrivalLane="53i_0" arrivalPos="10.00" arrivalPosLat="0.00" arrivalSpeed="11.13" duration="97.00" routeLength="995.30" waitSteps="7" timeLoss="26.49" rerouteNo="0" devices="tripinfo_32" vType="type5" speedFactor="1.00" vaporized=""/>
    <tripinfo id="43" depart="55.00" departLane="52o_0" departPos="10.00" departPosLat="0.00" departSpeed="0.00" departDelay="10.00" arrival="143.00" arrivalLane="54i_0" arrivalPos="10.00" arrivalPosLat="0.00" arrivalSpeed="9.63" duration="88.00" routeLength="1008.47" waitSteps="0" timeLoss="16.87" rerouteNo="0" devices="tripinfo_43" vType="type6" speedFactor="1.00" vaporized=""/>
    <tripinfo id="29" depart="36.00" departLane="54o_0" departPos="5.10" departPosLat="0.00" departSpeed="0.00" departDelay="6.00" arrival="147.00" arrivalLane="52i_0" arrivalPos="10.00" arrivalPosLat="0.00" arrivalSpeed="11.84" duration="111.00" routeLength="997.40" waitSteps="24" timeLoss="40.05" rerouteNo="0" devices="tripinfo_29" vType="type4" speedFactor="1.00" vaporized=""/>
    <tripinfo id="40" depart="45.00" departLane="54o_0" departPos="10.00" departPosLat="0.00" departSpeed="0.00" departDelay="0.00" arrival="149.00" arrivalLane="51i_0" arrivalPos="10.00" arrivalPosLat="0.00" arrivalSpeed="11.55" duration="104.00" routeLength="1008.47" waitSteps="12" timeLoss="32.74" rerouteNo="0" devices="tripinfo_40" vType="type6" speedFactor="1.00" vaporized=""/>
    <tripinfo id="39" depart="40.00" departLane="54o_0" departPos="7.20" departPosLat="0.00" departSpeed="0.00" departDelay="0.00" arrival="149.00" arrivalLane="53i_0" arrivalPos="10.00" arrivalPosLat="0.00" arrivalSpeed="11.06" duration="109.00" routeLength="1013.00" waitSteps="16" timeLoss="37.50" rerouteNo="0" devices="tripinfo_39" vType="type5" speedFactor="1.00" vaporized=""/>
    <tripinfo id="41" depart="50.00" departLane="54o_0" departPos="10.00" departPosLat="0.00" departSpeed="0.00" departDelay="5.00" arrival="150.00" arrivalLane="52i_0" arrivalPos="10.00" arrivalPosLat="0.00" arrivalSpeed="11.55" duration="100.00" routeLength="992.50" waitSteps="9" timeLoss="29.53" rerouteNo="0" devices="tripinfo_41" vType="type6" speedFactor="1.00" vaporized=""/>
    <tripinfo id="63" depart="65.00" departLane="54o_0" departPos="2.30" departPosLat="0.00" departSpeed="0.00" departDelay="0.00" arrival="156.00" arrivalLane="53i_0" arrivalPos="10.00" arrivalPosLat="0.00" arrivalSpeed="13.90" duration="91.00" routeLength="1017.90" waitSteps="0" timeLoss="18.74" rerouteNo="0" devices="tripinfo_63" vType="type2" speedFactor="1.00" vaporized=""/>
    <tripinfo id="64" depart="67.00" departLane="54o_0" departPos="2.30" departPosLat="0.00" departSpeed="0.00" departDelay="2.00" arrival="157.00" arrivalLane="51i_0" arrivalPos="10.00" arrivalPosLat="0.00" arrivalSpeed="13.48" duration="90.00" routeLength="1016.17" waitSteps="0" timeLoss="18.25" rerouteNo="0" devices="tripinfo_64" vType="type2" speedFactor="1.00" vaporized=""/>
    <tripinfo id="65" depart="70.00" departLane="54o_0" departPos="2.30" departPosLat="0.00" departSpeed="0.00" departDelay="0.00" arrival="159.00" arrivalLane="52i_0" arrivalPos="10.00" arrivalPosLat="0.00" arrivalSpeed="15.40" duration="89.00" routeLength="1000.20" waitSteps="0" timeLoss="17.58" rerouteNo="0" devices="tripinfo_65" vType="type2" speedFactor="1.00" vaporized=""/>
    <tripinfo id="75" depart="80.00" departLane="54o_0" departPos="5.10" departPosLat="0.00" departSpeed="0.00" departDelay="0.00" arrival="161.00" arrivalLane="53i_0" arrivalPos="10.00" arrivalPosLat="0.00" arrivalSpeed="11.95" duration="81.00" routeLength="1015.10" waitSteps="0" timeLoss="8.89" rerouteNo="0" devices="tripinfo_75" vType="type3" speedFactor="1.00" vaporized=""/>
    <tripinfo id="37" depart="45.00" departLane="51o_0" departPos="7.20" departPosLat="0.00" departSpeed="0.00" departDelay="5.00" arrival="163.00" arrivalLane="54i_0" arrivalPos="10.00" arrivalPosLat="0.00" arrivalSpeed="12.23" duration="118.00" routeLength="995.30" waitSteps="31" timeLoss="47.57" rerouteNo="0" devices="tripinfo_37" vType="type5" speedFactor="1.00" vaporized=""/>
    <tripinfo id="48" depart="55.00" departLane="51o_0" departPos="10.00" departPosLat="0.00" departSpeed="0.00" departDelay="5.00" arrival="165.00" arrivalLane="52i_0" arrivalPos="10.00" arrivalPosLat="0.00" arrivalSpeed="11.35" duration="110.00" routeLength="1010.20" waitSteps="17" timeLoss="38.95" rerouteNo="0" devices="tripinfo_48" vType="type6" speedFactor="1.00" vaporized=""/>
    <tripinfo id="38" depart="50.00" departLane="51o_0" departPos="7.20" departPosLat="0.00" departSpeed="0.00" departDelay="10.00" arrival="165.00" arrivalLane="53i_0" arrivalPos="10.00" arrivalPosLat="0.00" arrivalSpeed="11.54" duration="115.00" routeLength="1011.27" waitSteps="24" timeLoss="43.68" rerouteNo="0" devices="tripinfo_38" vType="type5" speedFactor="1.00" vaporized=""/>
    <tripinfo id="49" depart="61.00" departLane="51o_0" departPos="10.00" departPosLat="0.00" departSpeed="0.00" departDelay="11.00" arrival="166.00" arrivalLane="54i_0" arrivalPos="10.00" arrivalPosLat="0.00" arrivalSpeed="11.70" duration="105.00" routeLength="992.50" waitSteps="13" timeLoss="34.35" rerouteNo="0" devices="tripinfo_49" vType="type6" speedFactor="1.00" vaporized=""/>
    <tripinfo id="72" depart="75.00" departLane="51o_0" departPos="5.10" departPosLat="0.00" departSpeed="0.00" departDelay="0.00" arrival="170.00" arrivalLane="52i_1" arrivalPos="10.00" arrivalPosLat="0.00" arrivalSpeed="11.61" duration="95.00" routeLength="1015.10" waitSteps="5" timeLoss="23.47" rerouteNo="0" devices="tripinfo_72" vType="type3" speedFactor="1.00" vaporized=""/>
    <tripinfo id="60" depart="67.00" departLane="51o_0" departPos="2.30" departPosLat="0.00" departSpeed="0.00" departDelay="2.00" arrival="172.00" arrivalLane="52i_0" arrivalPos="10.00" arrivalPosLat="0.00" arrivalSpeed="12.61" duration="105.00" routeLength="1017.90" waitSteps="12" timeLoss="32.61" rerouteNo="0" devices="tripinfo_60" vType="type2" speedFactor="1.00" vaporized=""/>
    <tripinfo id="46" depart="56.00" departLane="53o_0" departPos="10.00" departPosLat="0.00" departSpeed="0.00" departDelay="6.00" arrival="172.00" arrivalLane="51i_0" arrivalPos="10.00" arrivalPosLat="0.00" arrivalSpeed="12.13" duration="116.00" routeLength="992.50" waitSteps="25" timeLoss="45.54" rerouteNo="0" devices="tripinfo_46" vType="type6" speedFactor="1.00" vaporized=""/>
    <tripinfo id="62" depart="71.00" departLane="51o_0" departPos="2.30" departPosLat="0.00" departSpeed="0.00" departDelay="6.00" arrival="173.00" arrivalLane="53i_0" arrivalPos="10.00" arrivalPosLat="0.00" arrivalSpeed="14.42" duration="102.00" routeLength="1016.17" waitSteps="9" timeLoss="30.01" rerouteNo="0" devices="tripinfo_62" vType="type2" speedFactor="1.00" vaporized=""/>
    <tripinfo id="47" depart="62.00" departLane="53o_0" departPos="10.00" departPosLat="0.00" departSpeed="0.00" departDelay="12.00" arrival="173.00" arrivalLane="52i_1" arrivalPos="10.00" arrivalPosLat="-1.20" arrivalSpeed="11.46" duration="111.00" routeLength="1008.47" waitSteps="19" timeLoss="40.19" rerouteNo="0" devices="tripinfo_47" vType="type6" speedFactor="1.00" vaporized=""/>
    <tripinfo id="69" depart="74.00" departLane="53o_0" departPos="2.30" departPosLat="0.00" departSpeed="0.00" departDelay="4.00" arrival="174.00" arrivalLane="54i_0" arrivalPos="10.00" arrivalPosLat="-0.09" arrivalSpeed="13.02" duration="100.00" routeLength="1017.90" waitSteps="11" timeLoss="27.99" rerouteNo="0" devices="tripinfo_69" vType="type2" speedFactor="1.00" vaporized=""/>
    <tripinfo id="81" depart="85.00" departLane="53o_0" departPos="5.10" departPosLat="0.00" departSpeed="0.00" departDelay="0.00" arrival="174.00" arrivalLane="54i_1" arrivalPos="10.00" arrivalPosLat="-0.74" arrivalSpeed="12.81" duration="89.00" routeLength="1015.10" waitSteps="2" timeLoss="17.24" rerouteNo="0" devices="tripinfo_81" vType="type4" speedFactor="1.00" vaporized=""/>
    <tripinfo id="70" depart="76.00" departLane="53o_0" departPos="5.10" departPosLat="0.00" departSpeed="0.00" departDelay="1.00" arrival="175.00" arrivalLane="51i_0" arrivalPos="10.00" arrivalPosLat="0.00" arrivalSpeed="11.47" duration="99.00" routeLength="997.40" waitSteps="10" timeLoss="28.74" rerouteNo="0" devices="tripinfo_70" vType="type3" speedFactor="1.00" vaporized=""/>
    <tripinfo id="71" depart="78.00" departLane="53o_0" departPos="5.10" departPosLat="0.00" departSpeed="0.00" departDelay="3.00" arrival="177.00" arrivalLane="52i_0" arrivalPos="10.00" arrivalPosLat="0.00" arrivalSpeed="12.93" duration="99.00" routeLength="1013.37" waitSteps="8" timeLoss="27.31" rerouteNo="0" devices="tripinfo_71" vType="type3" speedFactor="1.00" vaporized=""/>
    <tripinfo id="78" depart="80.00" departLane="52o_0" departPos="5.10" departPosLat="0.00" departSpeed="0.00" departDelay="0.00" arrival="179.00" arrivalLane="51i_0" arrivalPos="10.00" arrivalPosLat="0.00" arrivalSpeed="12.93" duration="99.00" routeLength="1015.10" waitSteps="15" timeLoss="27.54" rerouteNo="0" devices="tripinfo_78" vType="type3" speedFactor="1.00" vaporized=""/>
    <tripinfo id="44" depart="60.00" departLane="52o_0" departPos="10.00" departPosLat="0.00" departSpeed="0.00" departDelay="15.00" arrival="179.00" arrivalLane="53i_0" arrivalPos="10.00" arrivalPosLat="0.00" arrivalSpeed="11.70" duration="119.00" routeLength="992.50" waitSteps="29" timeLoss="49.28" rerouteNo="0" devices="tripinfo_44" vType="type6" speedFactor="1.00" vaporized=""/>
    <tripinfo id="90" depart="95.00" departLane="52o_0" departPos="7.20" departPosLat="0.00" departSpeed="0.00" departDelay="0.00" arrival="181.00" arrivalLane="51i_1" arrivalPos="10.00" arrivalPosLat="-1.00" arrivalSpeed="12.11" duration="86.00" routeLength="1013.00" waitSteps="0" timeLoss="14.24" rerouteNo="0" devices="tripinfo_90" vType="type5" speedFactor="1.00" vaporized=""/>
    <tripinfo id="66" depart="72.00" departLane="52o_0" departPos="2.30" departPosLat="0.00" departSpeed="0.00" departDelay="2.00" arrival="183.00" arrivalLane="51i_0" arrivalPos="10.00" arrivalPosLat="0.00" arrivalSpeed="14.71" duration="111.00" routeLength="1017.90" waitSteps="22" timeLoss="38.64" rerouteNo="0" devices="tripinfo_66" vType="type2" speedFactor="1.00" vaporized=""/>
    <tripinfo id="79" depart="83.00" departLane="52o_0" departPos="5.10" departPosLat="0.00" departSpeed="0.00" departDelay="3.00" arrival="184.00" arrivalLane="54i_0" arrivalPos="10.00" arrivalPosLat="0.46" arrivalSpeed="10.52" duration="101.00" routeLength="1013.37" waitSteps="14" timeLoss="29.57" rerouteNo="0" devices="tripinfo_79" vType="type3" speedFactor="1.00" vaporized=""/>
    <tripinfo id="99" depart="100.00" departLane="54o_0" departPos="7.20" departPosLat="0.00" departSpeed="0.00" departDelay="0.00" arrival="186.00" arrivalLane="53i_1" arrivalPos="10.00" arrivalPosLat="-0.44" arrivalSpeed="11.65" duration="86.00" routeLength="1013.00" waitSteps="0" timeLoss="14.41" rerouteNo="0" devices="tripinfo_99" vType="type5" speedFactor="1.00" vaporized=""/>
    <tripinfo id="67" depart="74.00" departLane="52o_0" departPos="2.30" departPosLat="0.00" departSpeed="0.00" departDelay="4.00" arrival="187.00" arrivalLane="54i_0" arrivalPos="10.00" arrivalPosLat="0.00" arrivalSpeed="14.80" duration="113.00" routeLength="1016.17" waitSteps="23" timeLoss="40.58" rerouteNo="0" devices="tripinfo_67" vType="type2" speedFactor="1.00" vaporized=""/>
    <tripinfo id="68" depart="76.00" departLane="52o_0" departPos="2.30" departPosLat="0.00" departSpeed="0.00" departDelay="6.00" arrival="187.00" arrivalLane="53i_0" arrivalPos="10.00" arrivalPosLat="0.00" arrivalSpeed="12.80" duration="111.00" routeLength="1000.20" waitSteps="10" timeLoss="40.35" rerouteNo="0" devices="tripinfo_68" vType="type2" speedFactor="1.00" vaporized=""/>
    <tripinfo id="76" depart="83.00" departLane="54o_0" departPos="5.10" departPosLat="0.00" departSpeed="0.00" departDelay="3.00" arrival="187.00" arrivalLane="51i_0" arrivalPos="10.00" arrivalPosLat="0.00" arrivalSpeed="10.20" duration="104.00" routeLength="1013.37" waitSteps="18" timeLoss="32.61" rerouteNo="0" devices="tripinfo_76" vType="type3" speedFactor="1.00" vaporized=""/>
    <tripinfo id="88" depart="93.00" departLane="54o_0" departPos="5.10" departPosLat="0.00" departSpeed="0.00" departDelay="3.00" arrival="189.00" arrivalLane="51i_0" arrivalPos="10.00" arrivalPosLat="0.00" arrivalSpeed="13.03" duration="96.00" routeLength="1013.37" waitSteps="9" timeLoss="24.62" rerouteNo="0" devices="tripinfo_88" vType="type4" speedFactor="1.00" vaporized=""/>
    <tripinfo id="87" depart="90.00" departLane="54o_0" departPos="5.10" departPosLat="0.00" departSpeed="0.00" departDelay="0.00" arrival="189.00" arrivalLane="53i_0" arrivalPos="10.00" arrivalPosLat="0.00" arrivalSpeed="12.30" duration="99.00" routeLength="1015.10" waitSteps="9" timeLoss="26.82" rerouteNo="0" devices="tripinfo_87" vType="type4" speedFactor="1.00" vaporized=""/>
    <tripinfo id="84" depart="85.00" departLane="51o_0" departPos="5.10" departPosLat="0.00" departSpeed="0.00" departDelay="0.00" arrival="195.00" arrivalLane="52i_0" arrivalPos="10.00" arrivalPosLat="0.00" arrivalSpeed="12.39" duration="110.00" routeLength="1015.10" waitSteps="18" timeLoss="38.75" rerouteNo="0" devices="tripinfo_84" vType="type4" speedFactor="1.00" vaporized=""/>
    <tripinfo id="74" depart="81.00" departLane="51o_0" departPos="5.10" departPosLat="0.00" departSpeed="0.00" departDelay="6.00" arrival="195.00" arrivalLane="53i_0" arrivalPos="10.00" arrivalPosLat="0.00" arrivalSpeed="11.63" duration="114.00" routeLength="1013.37" waitSteps="20" timeLoss="42.43" rerouteNo="0" devices="tripinfo_74" vType="type3" speedFactor="1.00" vaporized=""/>
    <tripinfo id="61" depart="70.00" departLane="51o_0" departPos="2.30" departPosLat="0.00" departSpeed="0.00" departDelay="5.00" arrival="196.00" arrivalLane="54i_0" arrivalPos="10.00" arrivalPosLat="0.00" arrivalSpeed="13.72" duration="126.00" routeLength="1000.20" waitSteps="31" timeLoss="55.20" rerouteNo="0" devices="tripinfo_61" vType="type2" speedFactor="1.00" vaporized=""/>
    <tripinfo id="73" depart="78.00" departLane="51o_0" departPos="5.10" departPosLat="0.00" departSpeed="0.00" departDelay="3.00" arrival="196.00" arrivalLane="54i_1" arrivalPos="10.00" arrivalPosLat="0.00" arrivalSpeed="11.41" duration="118.00" routeLength="997.40" waitSteps="24" timeLoss="47.67" rerouteNo="0" devices="tripinfo_73" vType="type3" speedFactor="1.00" vaporized=""/>