<?xml version="1.0" encoding="UTF-8"?>

<!-- generated on Sunday 16 September 2018 09:23:05 PM IST by SUMO gui Version 0.32.0
<?xml version="1.0" encoding="UTF-8"?>

<configuration xmlns:xsi="http://www.w3.org/2001/XMLSchema-instance" xsi:noNamespaceSchemaLocation="http://sumo.dlr.de/xsd/sumoConfiguration.xsd">

    <input>
        <net-file value="data/cross_2lanes.net.xml"/>
        <route-files value="data/cross.rou.xml"/>
        <additional-files value="data/cross.det.xml"/>
    </input>

    <output>
        <tripinfo-output value="tripinfo.xml"/>
    </output>

    <time>
        <begin value="0"/>
    </time>

    <processing>
        <lateral-resolution value="0.64"/>
    </processing>

    <report>
        <verbose value="true"/>
        <no-step-log value="true"/>
    </report>

    <traci_server>
        <remote-port value="51256"/>
    </traci_server>

</configuration>
-->

<tripinfos xmlns:xsi="http://www.w3.org/2001/XMLSchema-instance" xsi:noNamespaceSchemaLocation="http://sumo.dlr.de/xsd/tripinfo_file.xsd">
    <tripinfo id="mixed4.1" depart="3.00" departLane="54o_1" departPos="2.20" departPosLat="0.16" departSpeed="0.00" departDelay="-0.89" arrival="75.00" arrivalLane="53i_0" arrivalPos="10.00" arrivalPosLat="-1.20" arrivalSpeed="16.23" duration="72.00" routeLength="1018.00" waitSteps="0" timeLoss="10.47" rerouteNo="0" devices="tripinfo_mixed4.1" vType="moped" speedFactor="1.80" vaporized=""/>
    <tripinfo id="mixed4.3" depart="11.00" departLane="54o_1" departPos="5.10" departPosLat="-0.36" departSpeed="0.00" departDelay="-0.66" arrival="83.00" arrivalLane="53i_0" arrivalPos="10.00" arrivalPosLat="-0.70" arrivalSpeed="12.68" duration="72.00" routeLength="1015.10" waitSteps="0" timeLoss="10.11" rerouteNo="0" devices="tripinfo_mixed4.3" vType="car" speedFactor="1.16" vaporized=""/>
    <tripinfo id="mixed4.0" depart="0.00" departLane="54o_2" departPos="5.10" departPosLat="0.34" departSpeed="0.00" departDelay="0.00" arrival="85.00" arrivalLane="53i_0" arrivalPos="10.00" arrivalPosLat="-0.70" arrivalSpeed="12.57" duration="85.00" routeLength="1015.10" waitSteps="9" timeLoss="23.46" rerouteNo="0" devices="tripinfo_mixed4.0" vType="car" speedFactor="1.17" vaporized=""/>
    <tripinfo id="mixed4.2" depart="7.00" departLane="54o_2" departPos="2.20" departPosLat="0.11" departSpeed="0.00" departDelay="-0.78" arrival="87.00" arrivalLane="53i_0" arrivalPos="10.00" arrivalPosLat="-1.20" arrivalSpeed="14.13" duration="80.00" routeLength="1018.00" waitSteps="0" timeLoss="10.54" rerouteNo="0" devices="tripinfo_mixed4.2" vType="moped" speedFactor="1.18" vaporized=""/>
    <tripinfo id="mixed1.0" depart="0.00" departLane="51o_2" departPos="5.10" departPosLat="0.30" departSpeed="0.00" departDelay="0.00" arrival="102.00" arrivalLane="52i_0" arrivalPos="10.00" arrivalPosLat="-0.70" arrivalSpeed="11.76" duration="102.00" routeLength="1015.10" waitSteps="12" timeLoss="26.71" rerouteNo="0" devices="tripinfo_mixed1.0" vType="car" speedFactor="0.95" vaporized=""/>
    <tripinfo id="mixed4.8" depart="31.00" departLane="54o_1" departPos="5.10" departPosLat="0.10" departSpeed="0.00" departDelay="-0.10" arrival="122.00" arrivalLane="53i_0" arrivalPos="10.00" arrivalPosLat="-0.70" arrivalSpeed="15.26" duration="91.00" routeLength="1015.10" waitSteps="18" timeLoss="33.58" rerouteNo="0" devices="tripinfo_mixed4.8" vType="car" speedFactor="1.25" vaporized=""/>
    <tripinfo id="mixed4.6" depart="23.00" departLane="54o_1" departPos="2.20" departPosLat="-0.83" departSpeed="0.00" departDelay="-0.33" arrival="128.00" arrivalLane="53i_0" arrivalPos="10.00" arrivalPosLat="1.32" arrivalSpeed="15.81" duration="105.00" routeLength="1018.00" waitSteps="16" timeLoss="39.98" rerouteNo="0" devices="tripinfo_mixed4.6" vType="moped" speedFactor="1.36" vaporized=""/>
    <tripinfo id="mixed4.10" depart="38.00" departLane="54o_2" departPos="5.10" departPosLat="-0.14" departSpeed="0.00" departDelay="-0.88" arrival="128.00" arrivalLane="53i_0" arrivalPos="10.00" arrivalPosLat="-0.70" arrivalSpeed="13.23" duration="90.00" routeLength="1015.10" waitSteps="8" timeLoss="23.85" rerouteNo="0" devices="tripinfo_mixed4.10" vType="car" speedFactor="1.08" vaporized=""/>
    <tripinfo id="mixed1.2" depart="70.00" departLane="51o_0" departPos="5.10" departPosLat="0.08" departSpeed="0.00" departDelay="0.00" arrival="136.00" arrivalLane="52i_0" arrivalPos="10.00" arrivalPosLat="-0.70" arrivalSpeed="15.66" duration="66.00" routeLength="1015.10" waitSteps="0" timeLoss="9.13" rerouteNo="0" devices="tripinfo_mixed1.2" vType="car" speedFactor="1.26" vaporized=""/>
    <tripinfo id="mixed4.9" depart="34.00" departLane="54o_2" departPos="5.10" departPosLat="-0.44" departSpeed="0.00" departDelay="-0.99" arrival="144.00" arrivalLane="53i_0" arrivalPos="10.00" arrivalPosLat="-0.70" arrivalSpeed="10.66" duration="110.00" routeLength="1015.10" waitSteps="6" timeLoss="20.61" rerouteNo="0" devices="tripinfo_mixed4.9" vType="car" speedFactor="0.80" vaporized=""/>
    <tripinfo id="mixed4.4" depart="15.00" departLane="54o_1" departPos="2.20" departPosLat="-0.77" departSpeed="0.00" departDelay="-0.55" arrival="149.00" arrivalLane="53i_0" arrivalPos="10.00" arrivalPosLat="-1.20" arrivalSpeed="9.07" duration="134.00" routeLength="1018.00" waitSteps="19" timeLoss="38.06" rerouteNo="0" devices="tripinfo_mixed4.4" vType="moped" speedFactor="0.75" vaporized=""/>
    <tripinfo id="mixed4.5" depart="19.00" departLane="54o_2" departPos="2.20" departPosLat="-0.95" departSpeed="0.00" departDelay="-0.44" arrival="150.00" arrivalLane="53i_0" arrivalPos="10.00" arrivalPosLat="-0.68" arrivalSpeed="8.98" duration="131.00" routeLength="1018.00" waitSteps="18" timeLoss="57.91" rerouteNo="0" devices="tripinfo_mixed4.5" vType="moped" speedFactor="1.07" vaporized=""/>
    <tripinfo id="mixed4.11" depart="42.00" departLane="54o_0" departPos="2.20" departPosLat="-0.71" departSpeed="0.00" departDelay="-0.77" arrival="151.00" arrivalLane="53i_0" arrivalPos="10.00" arrivalPosLat="1.32" arrivalSpeed="7.50" duration="109.00" routeLength="1018.00" waitSteps="0" timeLoss="12.09" rerouteNo="0" devices="tripinfo_mixed4.11" vType="moped" speedFactor="0.74" vaporized=""/>
    <tripinfo id="mixed4.7" depart="27.00" departLane="54o_2" departPos="2.20" departPosLat="-0.93" departSpeed="0.00" departDelay="-0.22" arrival="156.00" arrivalLane="53i_0" arrivalPos="10.00" arrivalPosLat="-1.20" arrivalSpeed="9.49" duration="129.00" routeLength="1018.00" waitSteps="5" timeLoss="24.90" rerouteNo="0" devices="tripinfo_mixed4.7" vType="moped" speedFactor="0.69" vaporized=""/>
    <tripinfo id="mixed1.1" depart="35.00" departLane="51o_2" departPos="2.20" departPosLat="-1.12" departSpeed="0.00" departDelay="0.00" arrival="160.00" arrivalLane="52i_0" arrivalPos="10.00" arrivalPosLat="-1.20" arrivalSpeed="8.45" duration="125.00" routeLength="1018.00" waitSteps="6" timeLoss="23.53" rerouteNo="0" devices="tripinfo_mixed1.1" vType="moped" speedFactor="0.71" vaporized=""/>
    <tripinfo id="mixed4.20" depart="77.00" departLane="54o_1" departPos="2.20" departPosLat="-0.92" departSpeed="0.00" departDelay="-0.76" arrival="161.00" arrivalLane="53i_0" arrivalPos="10.00" arrivalPosLat="-1.20" arrivalSpeed="16.16" duration="84.00" routeLength="1018.00" waitSteps="2" timeLoss="22.34" rerouteNo="0" devices="tripinfo_mixed4.20" vType="moped" speedFactor="1.62" vaporized=""/>
    <tripinfo id="mixed4.12" depart="46.00" departLane="54o_1" departPos="2.20" departPosLat="-0.58" departSpeed="0.00" departDelay="-0.66" arrival="165.00" arrivalLane="53i_0" arrivalPos="10.00" arrivalPosLat="-1.20" arrivalSpeed="15.21" duration="119.00" routeLength="1018.00" waitSteps="32" timeLoss="53.51" rerouteNo="0" devices="tripinfo_mixed4.12" vType="moped" speedFactor="1.33" vaporized=""/>
    <tripinfo id="mixed4.16" depart="62.00" departLane="54o_2" departPos="5.10" departPosLat="0.38" departSpeed="0.00" departDelay="-0.21" arrival="170.00" arrivalLane="53i_0" arrivalPos="10.00" arrivalPosLat="-0.70" arrivalSpeed="11.88" duration="108.00" routeLength="1015.10" waitSteps="25" timeLoss="37.48" rerouteNo="0" devices="tripinfo_mixed4.16" vType="car" speedFactor="1.02" vaporized=""/>
    <tripinfo id="mixed4.18" depart="69.00" departLane="54o_1" departPos="5.10" departPosLat="-0.15" departSpeed="0.00" departDelay="-0.98" arrival="172.00" arrivalLane="53i_0" arrivalPos="10.00" arrivalPosLat="0.58" arrivalSpeed="12.94" duration="103.00" routeLength="1015.10" waitSteps="21" timeLoss="35.81" rerouteNo="0" devices="tripinfo_mixed4.18" vType="car" speedFactor="1.06" vaporized=""/>
    <tripinfo id="mixed4.14" depart="54.00" departLane="54o_2" departPos="2.20" departPosLat="1.11" departSpeed="0.00" departDelay="-0.43" arrival="173.00" arrivalLane="53i_1" arrivalPos="10.00" arrivalPosLat="0.72" arrivalSpeed="12.27" duration="119.00" routeLength="1018.00" waitSteps="23" timeLoss="47.60" rerouteNo="0" devices="tripinfo_mixed4.14" vType="moped" speedFactor="1.12" vaporized=""/>
    <tripinfo id="mixed4.13" depart="50.00" departLane="54o_0" departPos="2.20" departPosLat="-0.87" departSpeed="0.00" departDelay="-0.54" arrival="174.00" arrivalLane="53i_0" arrivalPos="10.00" arrivalPosLat="-1.20" arrivalSpeed="6.80" duration="124.00" routeLength="1018.00" waitSteps="26" timeLoss="49.66" rerouteNo="0" devices="tripinfo_mixed4.13" vType="moped" speedFactor="1.04" vaporized=""/>
    <tripinfo id="mixed4.23" depart="90.00" departLane="54o_2" departPos="5.10" departPosLat="0.53" departSpeed="0.00" departDelay="0.58" arrival="176.00" arrivalLane="53i_0" arrivalPos="10.00" arrivalPosLat="-0.70" arrivalSpeed="11.66" duration="86.00" routeLength="1015.10" waitSteps="0" timeLoss="9.60" rerouteNo="0" devices="tripinfo_mixed4.23" vType="car" speedFactor="0.94" vaporized=""/>
    <tripinfo id="mixed4.19" depart="73.00" departLane="54o_0" departPos="5.10" departPosLat="-0.41" departSpeed="0.00" departDelay="-0.87" arrival="191.00" arrivalLane="53i_0" arrivalPos="10.00" arrivalPosLat="-0.70" arrivalSpeed="10.90" duration="118.00" routeLength="1015.10" waitSteps="12" timeLoss="27.16" rerouteNo="0" devices="tripinfo_mixed4.19" vType="car" speedFactor="0.79" vaporized=""/>
    <tripinfo id="mixed4.21" depart="81.00" departLane="54o_2" departPos="2.20" departPosLat="-1.02" departSpeed="0.00" departDelay="-0.65" arrival="202.00" arrivalLane="53i_0" arrivalPos="10.00" arrivalPosLat="-1.20" arrivalSpeed="16.58" duration="121.00" routeLength="1018.00" waitSteps="29" timeLoss="58.77" rerouteNo="0" devices="tripinfo_mixed4.21" vType="moped" speedFactor="1.49" vaporized=""/>
    <tripinfo id="mixed4.32" depart="124.00" departLane="54o_0" departPos="2.20" departPosLat="-0.65" departSpeed="0.00" departDelay="-0.42" arrival="203.00" arrivalLane="53i_0" arrivalPos="10.00" arrivalPosLat="-1.20" arrivalSpeed="13.49" duration="79.00" routeLength="1018.00" waitSteps="0" timeLoss="11.97" rerouteNo="0" devices="tripinfo_mixed4.32" vType="moped" speedFactor="1.25" vaporized=""/>
    <tripinfo id="mixed4.28" depart="108.00" departLane="54o_0" departPos="2.20" departPosLat="1.15" departSpeed="0.00" departDelay="-0.86" arrival="207.00" arrivalLane="53i_0" arrivalPos="10.00" arrivalPosLat="1.32" arrivalSpeed="14.59" duration="99.00" routeLength="1018.00" waitSteps="9" timeLoss="31.75" rerouteNo="0" devices="tripinfo_mixed4.28" vType="moped" speedFactor="1.26" vaporized=""/>
    <tripinfo id="mixed4.29" depart="112.00" departLane="54o_1" departPos="5.10" departPosLat="0.15" departSpeed="0.00" departDelay="-0.75" arrival="208.00" arrivalLane="53i_0" arrivalPos="10.00" arrivalPosLat="-0.70" arrivalSpeed="13.37" duration="96.00" routeLength="1015.10" waitSteps="14" timeLoss="29.54" rerouteNo="0" devices="tripinfo_mixed4.29" vType="car" speedFactor="1.08" vaporized=""/>
    <tripinfo id="mixed4.24" depart="93.00" departLane="54o_2" departPos="2.20" departPosLat="-0.46" departSpeed="0.00" departDelay="-0.31" arrival="214.00" arrivalLane="53i_0" arrivalPos="10.00" arrivalPosLat="0.68" arrivalSpeed="12.51" duration="121.00" routeLength="1018.00" waitSteps="25" timeLoss="47.89" rerouteNo="0" devices="tripinfo_mixed4.24" vType="moped" speedFactor="1.08" vaporized=""/>
    <tripinfo id="mixed4.22" depart="85.00" departLane="54o_2" departPos="2.20" departPosLat="0.99" departSpeed="0.00" departDelay="-0.54" arrival="214.00" arrivalLane="53i_0" arrivalPos="10.00" arrivalPosLat="-1.20" arrivalSpeed="11.64" duration="129.00" routeLength="1018.00" waitSteps="24" timeLoss="52.09" rerouteNo="0" devices="tripinfo_mixed4.22" vType="moped" speedFactor="0.98" vaporized=""/>
    <tripinfo id="mixed1.3" depart="105.00" departLane="51o_2" departPos="2.20" departPosLat="-0.76" departSpeed="0.00" departDelay="0.00" arrival="217.00" arrivalLane="52i_0" arrivalPos="10.00" arrivalPosLat="-1.20" arrivalSpeed="12.86" duration="112.00" routeLength="1018.00" waitSteps="22" timeLoss="40.90" rerouteNo="0" devices="tripinfo_mixed1.3" vType="moped" speedFactor="1.12" vaporized=""/>
    <tripinfo id="mixed4.30" depart="116.00" departLane="54o_0" departPos="2.20" departPosLat="1.09" departSpeed="0.00" departDelay="-0.64" arrival="227.00" arrivalLane="53i_0" arrivalPos="10.00" arrivalPosLat="-1.20" arrivalSpeed="9.41" duration="111.00" routeLength="1018.00" waitSteps="1" timeLoss="21.83" rerouteNo="0" devices="tripinfo_mixed4.30" vType="moped" speedFactor="0.81" vaporized=""/>
    <tripinfo id="mixed4.17" depart="66.00" departLane="54o_0" departPos="5.10" departPosLat="-0.36" departSpeed="0.00" departDelay="-0.10" arrival="230.00" arrivalLane="53i_0" arrivalPos="10.00" arrivalPosLat="-0.70" arrivalSpeed="9.51" duration="164.00" routeLength="1015.10" waitSteps="46" timeLoss="67.58" rerouteNo="0" devices="tripinfo_mixed4.17" vType="car" speedFactor="0.75" vaporized=""/>
    <tripinfo id="mixed4.25" depart="97.00" departLane="54o_0" departPos="2.20" departPosLat="0.93" departSpeed="0.00" departDelay="-0.20" arrival="232.00" arrivalLane="53i_0" arrivalPos="10.00" arrivalPosLat="-1.20" arrivalSpeed="8.87" duration="135.00" routeLength="1018.00" waitSteps="20" timeLoss="40.33" rerouteNo="0" devices="tripinfo_mixed4.25" vType="moped" speedFactor="0.76" vaporized=""/>
    <tripinfo id="mixed4.33" depart="128.00" departLane="54o_0" departPos="2.20" departPosLat="0.23" departSpeed="0.00" departDelay="-0.30" arrival="241.00" arrivalLane="53i_0" arrivalPos="10.00" arrivalPosLat="-1.20" arrivalSpeed="16.58" duration="113.00" routeLength="1018.00" waitSteps="28" timeLoss="51.12" rerouteNo="0" devices="tripinfo_mixed4.33" vType="moped" speedFactor="1.68" vaporized=""/>
    <tripinfo id="mixed4.26" depart="101.00" departLane="54o_0" departPos="2.20" departPosLat="-0.72" departSpeed="0.00" departDelay="-0.09" arrival="243.00" arrivalLane="53i_0" arrivalPos="10.00" arrivalPosLat="-1.20" arrivalSpeed="16.62" duration="142.00" routeLength="1018.00" waitSteps="50" timeLoss="78.32" rerouteNo="0" devices="tripinfo_mixed4.26" vType="moped" speedFactor="1.41" vaporized=""/>
    <tripinfo id="mixed4.36" depart="139.00" departLane="54o_1" departPos="2.20" departPosLat="-0.55" departSpeed="0.00" departDelay="-0.97" arrival="244.00" arrivalLane="53i_0" arrivalPos="10.00" arrivalPosLat="0.72" arrivalSpeed="15.18" duration="105.00" routeLength="1018.00" waitSteps="10" timeLoss="41.75" rerouteNo="0" devices="tripinfo_mixed4.36" vType="moped" speedFactor="1.40" vaporized=""/>
    <tripinfo id="mixed4.40" depart="155.00" departLane="54o_1" departPos="2.20" departPosLat="0.34" departSpeed="0.00" departDelay="-0.52" arrival="247.00" arrivalLane="53i_0" arrivalPos="10.00" arrivalPosLat="0.08" arrivalSpeed="13.23" duration="92.00" routeLength="1018.00" waitSteps="4" timeLoss="30.30" rerouteNo="0" devices="tripinfo_mixed4.40" vType="moped" speedFactor="1.48" vaporized=""/>
    <tripinfo id="mixed4.34" depart="132.00" departLane="54o_1" departPos="2.20" departPosLat="-0.13" departSpeed="0.00" departDelay="-0.19" arrival="250.00" arrivalLane="53i_0" arrivalPos="10.00" arrivalPosLat="0.68" arrivalSpeed="11.80" duration="118.00" routeLength="1018.00" waitSteps="26" timeLoss="48.72" rerouteNo="0" devices="tripinfo_mixed4.34" vType="moped" speedFactor="1.19" vaporized=""/>
    <tripinfo id="mixed4.15" depart="58.00" departLane="54o_2" departPos="2.20" departPosLat="0.87" departSpeed="0.00" departDelay="-0.32" arrival="251.00" arrivalLane="53i_0" arrivalPos="10.00" arrivalPosLat="-0.20" arrivalSpeed="7.50" duration="193.00" routeLength="1018.00" waitSteps="40" timeLoss="64.17" rerouteNo="0" devices="tripinfo_mixed4.15" vType="moped" speedFactor="0.56" vaporized=""/>
    <tripinfo id="mixed4.35" depart="136.00" departLane="54o_2" departPos="2.20" departPosLat="-0.84" departSpeed="0.00" departDelay="-0.08" arrival="253.00" arrivalLane="53i_0" arrivalPos="10.00" arrivalPosLat="-1.20" arrivalSpeed="11.86" duration="117.00" routeLength="1018.00" waitSteps="21" timeLoss="41.41" rerouteNo="0" devices="tripinfo_mixed4.35" vType="moped" speedFactor="1.01" vaporized=""/>
    <tripinfo id="mixed4.38" depart="147.00" departLane="54o_1" departPos="5.10" departPosLat="0.19" departSpeed="0.00" departDelay="-0.74" arrival="256.00" arrivalLane="53i_0" arrivalPos="10.00" arrivalPosLat="-0.70" arrivalSpeed="12.33" duration="109.00" routeLength="1015.10" waitSteps="18" timeLoss="40.20" rerouteNo="0" devices="tripinfo_mixed4.38" vType="car" speedFactor="1.05" vaporized=""/>
    <tripinfo id="mixed4.39" depart="151.00" departLane="54o_0" departPos="5.10" departPosLat="-0.21" departSpeed="0.00" departDelay="-0.63" arrival="257.00" arrivalLane="53i_0" arrivalPos="10.00" arrivalPosLat="0.82" arrivalSpeed="12.33" duration="106.00" routeLength="1015.10" waitSteps="14" timeLoss="33.93" rerouteNo="0" devices="tripinfo_mixed4.39" vType="car" speedFactor="0.99" vaporized=""/>
    <tripinfo id="mixed1.5" depart="175.00" departLane="51o_1" departPos="5.10" departPosLat="0.19" departSpeed="0.00" departDelay="0.00" arrival="257.00" arrivalLane="52i_0" arrivalPos="10.00" arrivalPosLat="-0.70" arrivalSpeed="12.87" duration="82.00" routeLength="1015.10" waitSteps="0" timeLoss="12.82" rerouteNo="0" devices="tripinfo_mixed1.5" vType="car" speedFactor="1.04" vaporized=""/>
    <tripinfo id="mixed4.41" depart="159.00" departLane="54o_2" departPos="2.20" departPosLat="-0.26" departSpeed="0.00" departDelay="-0.41" arrival="259.00" arrivalLane="53i_0" arrivalPos="10.00" arrivalPosLat="-1.20" arrivalSpeed="11.86" duration="100.00" routeLength="1018.00" waitSteps="0" timeLoss="23.26" rerouteNo="0" devices="tripinfo_mixed4.41" vType="moped" speedFactor="0.99" vaporized=""/>
    <tripinfo id="mixed4.42" depart="163.00" departLane="54o_0" departPos="2.20" departPosLat="-1.05" departSpeed="0.00" departDelay="-0.30" arrival="261.00" arrivalLane="53i_0" arrivalPos="10.00" arrivalPosLat="-1.20" arrivalSpeed="11.46" duration="98.00" routeLength="1018.00" waitSteps="0" timeLoss="18.57" rerouteNo="0" devices="tripinfo_mixed4.42" vType="moped" speedFactor="0.95" vaporized=""/>
    <tripinfo id="mixed4.37" depart="143.00" departLane="54o_1" departPos="2.20" departPosLat="0.99" departSpeed="0.00" departDelay="-0.86" arrival="269.00" arrivalLane="53i_0" arrivalPos="10.00" arrivalPosLat="-1.20" arrivalSpeed="9.77" duration="126.00" routeLength="1018.00" waitSteps="14" timeLoss="41.41" rerouteNo="0" devices="tripinfo_mixed4.37" vType="moped" speedFactor="0.85" vaporized=""/>
    <tripinfo id="mixed4.48" depart="186.00" departLane="54o_1" departPos="5.10" departPosLat="0.53" departSpeed="0.00" departDelay="-0.62" arrival="275.00" arrivalLane="53i_0" arrivalPos="10.00" arrivalPosLat="-0.70" arrivalSpeed="15.42" duration="89.00" routeLength="1015.10" waitSteps="13" timeLoss="30.53" rerouteNo="0" devices="tripinfo_mixed4.48" vType="car" speedFactor="1.24" vaporized=""/>
    <tripinfo id="mixed4.47" depart="182.00" departLane="54o_2" departPos="5.10" departPosLat="-0.64" departSpeed="0.00" departDelay="-0.74" arrival="279.00" arrivalLane="53i_0" arrivalPos="10.00" arrivalPosLat="-0.70" arrivalSpeed="13.85" duration="97.00" routeLength="1015.10" waitSteps="17" timeLoss="32.13" rerouteNo="0" devices="tripinfo_mixed4.47" vType="car" speedFactor="1.11" vaporized=""/>
    <tripinfo id="mixed4.53" depart="206.00" departLane="54o_2" departPos="5.10" departPosLat="0.41" departSpeed="0.00" departDelay="-0.06" arrival="285.00" arrivalLane="53i_0" arrivalPos="10.00" arrivalPosLat="-0.70" arrivalSpeed="12.48" duration="79.00" routeLength="1015.10" waitSteps="0" timeLoss="9.27" rerouteNo="0" devices="tripinfo_mixed4.53" vType="car" speedFactor="1.03" vaporized=""/>
    <tripinfo id="mixed4.51" depart="198.00" departLane="54o_2" departPos="5.10" departPosLat="-0.66" departSpeed="0.00" departDelay="-0.29" arrival="287.00" arrivalLane="53i_0" arrivalPos="10.00" arrivalPosLat="0.58" arrivalSpeed="12.48" duration="89.00" routeLength="1015.10" waitSteps="5" timeLoss="27.95" rerouteNo="0" devices="tripinfo_mixed4.51" vType="car" speedFactor="1.17" vaporized=""/>
    <tripinfo id="mixed1.4" depart="140.00" departLane="51o_1" departPos="2.20" departPosLat="0.18" departSpeed="0.00" departDelay="0.00" arrival="293.00" arrivalLane="52i_0" arrivalPos="10.00" arrivalPosLat="-1.20" arrivalSpeed="7.63" duration="153.00" routeLength="1018.00" waitSteps="15" timeLoss="32.09" rerouteNo="0" devices="tripinfo_mixed1.4" vType="moped" speedFactor="0.60" vaporized=""/>
    <tripinfo id="mixed4.43" depart="167.00" departLane="54o_1" departPos="2.20" departPosLat="0.99" departSpeed="0.00" departDelay="-0.18" arrival="294.00" arrivalLane="53i_0" arrivalPos="10.00" arrivalPosLat="-1.20" arrivalSpeed="9.67" duration="127.00" routeLength="1018.00" waitSteps="21" timeLoss="40.82" rerouteNo="0" devices="tripinfo_mixed4.43" vType="moped" speedFactor="0.84" vaporized=""/>
    <tripinfo id="mixed4.45" depart="174.00" departLane="54o_1" departPos="2.20" departPosLat="1.04" departSpeed="0.00" departDelay="-0.96" arrival="298.00" arrivalLane="53i_0" arrivalPos="10.00" arrivalPosLat="0.68" arrivalSpeed="8.84" duration="124.00" routeLength="1018.00" waitSteps="13" timeLoss="32.73" rerouteNo="0" devices="tripinfo_mixed4.45" vType="moped" speedFactor="0.79" vaporized=""/>
    <tripinfo id="mixed4.31" depart="120.00" departLane="54o_1" departPos="2.20" departPosLat="0.42" departSpeed="0.00" departDelay="-0.53" arrival="299.00" arrivalLane="53i_0" arrivalPos="10.00" arrivalPosLat="-1.20" arrivalSpeed="6.31" duration="179.00" routeLength="1018.00" waitSteps="20" timeLoss="37.62" rerouteNo="0" devices="tripinfo_mixed4.31" vType="moped" speedFactor="0.51" vaporized=""/>
    <tripinfo id="mixed4.49" depart="190.00" departLane="54o_1" departPos="5.10" departPosLat="-0.61" departSpeed="0.00" departDelay="-0.51" arrival="301.00" arrivalLane="53i_0" arrivalPos="10.00" arrivalPosLat="0.58" arrivalSpeed="13.27" duration="111.00" routeLength="1015.10" waitSteps="8" timeLoss="43.93" rerouteNo="0" devices="tripinfo_mixed4.49" vType="car" speedFactor="1.06" vaporized=""/>
    <tripinfo id="mixed4.46" depart="178.00" departLane="54o_1" departPos="2.20" departPosLat="0.41" departSpeed="0.00" departDelay="-0.85" arrival="307.00" arrivalLane="53i_0" arrivalPos="10.00" arrivalPosLat="-1.20" arrivalSpeed="9.42" duration="129.00" routeLength="1018.00" waitSteps="4" timeLoss="27.79" rerouteNo="0" devices="tripinfo_mixed4.46" vType="moped" speedFactor="0.71" vaporized=""/>
    <tripinfo id="mixed4.63" depart="244.00" departLane="54o_0" departPos="5.10" departPosLat="-0.01" departSpeed="0.00" departDelay="-0.94" arrival="309.00" arrivalLane="53i_0" arrivalPos="10.00" arrivalPosLat="0.58" arrivalSpeed="14.33" duration="65.00" routeLength="1015.10" waitSteps="0" timeLoss="9.19" rerouteNo="0" devices="tripinfo_mixed4.63" vType="car" speedFactor="1.28" vaporized=""/>
    <tripinfo id="mixed4.54" depart="209.00" departLane="54o_0" departPos="2.20" departPosLat="0.30" departSpeed="0.00" departDelay="-0.95" arrival="310.00" arrivalLane="53i_1" arrivalPos="10.00" arrivalPosLat="-0.56" arrivalSpeed="14.94" duration="101.00" routeLength="1018.00" waitSteps="13" timeLoss="35.21" rerouteNo="0" devices="tripinfo_mixed4.54" vType="moped" speedFactor="1.33" vaporized=""/>
    <tripinfo id="mixed4.59" depart="229.00" departLane="54o_2" departPos="2.20" departPosLat="-0.70" departSpeed="0.00" departDelay="-0.39" arrival="311.00" arrivalLane="53i_0" arrivalPos="10.00" arrivalPosLat="-0.32" arrivalSpeed="13.99" duration="82.00" routeLength="1018.00" waitSteps="0" timeLoss="13.11" rerouteNo="0" devices="tripinfo_mixed4.59" vType="moped" speedFactor="1.21" vaporized=""/>
    <tripinfo id="mixed4.44" depart="171.00" departLane="54o_1" departPos="2.20" departPosLat="-0.82" departSpeed="0.00" departDelay="-0.07" arrival="315.00" arrivalLane="53i_0" arrivalPos="10.00" arrivalPosLat="-1.20" arrivalSpeed="8.09" duration="144.00" routeLength="1018.00" waitSteps="11" timeLoss="29.09" rerouteNo="0" devices="tripinfo_mixed4.44" vType="moped" speedFactor="0.63" vaporized=""/>
    <tripinfo id="mixed4.56" depart="217.00" departLane="54o_1" departPos="5.10" departPosLat="0.23" departSpeed="0.00" departDelay="-0.73" arrival="317.00" arrivalLane="53i_0" arrivalPos="10.00" arrivalPosLat="0.58" arrivalSpeed="9.07" duration="100.00" routeLength="1015.10" waitSteps="12" timeLoss="29.35" rerouteNo="0" devices="tripinfo_mixed4.56" vType="car" speedFactor="1.01" vaporized=""/>
    <tripinfo id="mixed4.55" depart="213.00" departLane="54o_0" departPos="2.20" departPosLat="0.41" departSpeed="0.00" departDelay="-0.84" arrival="322.00" arrivalLane="53i_0" arrivalPos="10.00" arrivalPosLat="-1.20" arrivalSpeed="10.98" duration="109.00" routeLength="1018.00" waitSteps="8" timeLoss="28.77" rerouteNo="0" devices="tripinfo_mixed4.55" vType="moped" speedFactor="0.92" vaporized=""/>
    <tripinfo id="mixed1.6" depart="210.00" departLane="51o_1" departPos="2.20" departPosLat="-0.33" departSpeed="0.00" departDelay="0.00" arrival="331.00" arrivalLane="52i_0" arrivalPos="10.00" arrivalPosLat="-1.20" arrivalSpeed="10.84" duration="121.00" routeLength="1018.00" waitSteps="19" timeLoss="39.63" rerouteNo="0" devices="tripinfo_mixed1.6" vType="moped" speedFactor="0.90" vaporized=""/>
    <tripinfo id="mixed4.57" depart="221.00" departLane="54o_0" departPos="2.20" departPosLat="0.51" departSpeed="0.00" departDelay="-0.62" arrival="333.00" arrivalLane="53i_0" arrivalPos="10.00" arrivalPosLat="-1.20" arrivalSpeed="9.12" duration="112.00" routeLength="1018.00" waitSteps="0" timeLoss="18.47" rerouteNo="0" devices="tripinfo_mixed4.57" vType="moped" speedFactor="0.77" vaporized=""/>
    <tripinfo id="mixed4.50" depart="194.00" departLane="54o_0" departPos="2.20" departPosLat="-1.10" departSpeed="0.00" departDelay="-0.40" arrival="340.00" arrivalLane="53i_0" arrivalPos="10.00" arrivalPosLat="-1.20" arrivalSpeed="8.41" duration="146.00" routeLength="1018.00" waitSteps="23" timeLoss="39.48" rerouteNo="0" devices="tripinfo_mixed4.50" vType="moped" speedFactor="0.67" vaporized=""/>
    <tripinfo id="mixed4.60" depart="233.00" departLane="54o_1" departPos="2.20" departPosLat="0.81" departSpeed="0.00" departDelay="-0.28" arrival="342.00" arrivalLane="53i_0" arrivalPos="10.00" arrivalPosLat="0.64" arrivalSpeed="14.56" duration="109.00" routeLength="1018.00" waitSteps="21" timeLoss="40.80" rerouteNo="0" devices="tripinfo_mixed4.60" vType="moped" speedFactor="1.23" vaporized=""/>
    <tripinfo id="mixed1.7" depart="245.00" departLane="51o_1" departPos="2.20" departPosLat="-0.25" departSpeed="0.00" departDelay="0.00" arrival="346.00" arrivalLane="52i_0" arrivalPos="10.00" arrivalPosLat="-1.20" arrivalSpeed="15.04" duration="101.00" routeLength="1018.00" waitSteps="17" timeLoss="37.42" rerouteNo="0" devices="tripinfo_mixed1.7" vType="moped" speedFactor="1.39" vaporized=""/>
    <tripinfo id="mixed4.64" depart="248.00" departLane="54o_1" departPos="2.20" departPosLat="0.04" departSpeed="0.00" departDelay="-0.83" arrival="348.00" arrivalLane="53i_0" arrivalPos="10.00" arrivalPosLat="0.32" arrivalSpeed="16.49" duration="100.00" routeLength="1018.00" waitSteps="7" timeLoss="38.70" rerouteNo="0" devices="tripinfo_mixed4.64" vType="moped" speedFactor="1.58" vaporized=""/>
    <tripinfo id="mixed4.69" depart="268.00" departLane="54o_2" departPos="5.10" departPosLat="-0.64" departSpeed="0.00" departDelay="-0.27" arrival="351.00" arrivalLane="53i_1" arrivalPos="10.00" arrivalPosLat="-1.38" arrivalSpeed="13.00" duration="83.00" routeLength="1015.10" waitSteps="0" timeLoss="15.88" rerouteNo="0" devices="tripinfo_mixed4.69" vType="car" speedFactor="1.07" vaporized=""/>
    <tripinfo id="mixed4.27" depart="104.00" departLane="54o_2" departPos="2.20" departPosLat="-0.85" departSpeed="0.00" departDelay="-0.98" arrival="351.00" arrivalLane="53i_0" arrivalPos="10.00" arrivalPosLat="-1.20" arrivalSpeed="5.17" duration="247.00" routeLength="1018.00" waitSteps="14" timeLoss="35.38" rerouteNo="0" devices="tripinfo_mixed4.27" vType="moped" speedFactor="0.34" vaporized=""/>
    <tripinfo id="mixed4.52" depart="202.00" departLane="54o_0" departPos="2.20" departPosLat="-0.96" departSpeed="0.00" departDelay="-0.18" arrival="353.00" arrivalLane="53i_0" arrivalPos="10.00" arrivalPosLat="-1.20" arrivalSpeed="7.89" duration="151.00" routeLength="1018.00" waitSteps="10" timeLoss="28.89" rerouteNo="0" devices="tripinfo_mixed4.52" vType="moped" speedFactor="0.59" vaporized=""/>
    <tripinfo id="mixed4.67" depart="260.00" departLane="54o_1" departPos="2.20" departPosLat="-1.02" departSpeed="0.00" departDelay="-0.50" arrival="357.00" arrivalLane="53i_1" arrivalPos="10.00" arrivalPosLat="0.68" arrivalSpeed="15.16" duration="97.00" routeLength="1018.00" waitSteps="0" timeLoss="30.44" rerouteNo="0" devices="tripinfo_mixed4.67" vType="moped" speedFactor="1.29" vaporized=""/>