<?xml version="1.0" encoding="UTF-8"?>

<!-- generated on Sunday 27 January 2019 10:52:09 PM IST by SUMO gui Version 0.32.0
<?xml version="1.0" encoding="UTF-8"?>

<configuration xmlns:xsi="http://www.w3.org/2001/XMLSchema-instance" xsi:noNamespaceSchemaLocation="http://sumo.dlr.de/xsd/sumoConfiguration.xsd">

    <input>
        <net-file value="data/cross_2lanes.net.xml"/>
        <route-files value="data/cross_7_3_30mins.rou.xml"/>
        <additional-files value="data/cross.det.xml"/>
    </input>

    <output>
        <tripinfo-output value="tripinfo.xml"/>
    </output>

    <time>
        <begin value="0"/>
    </time>

    <processing>
        <lateral-resolution value="0.64"/>
        <waiting-time-memory value="60"/>
    </processing>

    <report>
        <verbose value="true"/>
        <no-step-log value="true"/>
    </report>

    <gui_only>
        <start value="true"/>
    </gui_only>

</configuration>
-->

<tripinfos xmlns:xsi="http://www.w3.org/2001/XMLSchema-instance" xsi:noNamespaceSchemaLocation="http://sumo.dlr.de/xsd/tripinfo_file.xsd">
    <tripinfo id="0" depart="5.00" departLane="51o_0" departPos="2.30" departPosLat="0.00" departSpeed="0.00" departDelay="0.00" arrival="92.00" arrivalLane="54i_0" arrivalPos="10.00" arrivalPosLat="0.00" arrivalSpeed="12.43" duration="87.00" routeLength="1000.20" waitSteps="2" timeLoss="16.31" rerouteNo="0" devices="tripinfo_0" vType="type2" speedFactor="1.00" vaporized=""/>
    <tripinfo id="1" depart="7.00" departLane="51o_0" departPos="2.30" departPosLat="0.00" departSpeed="0.00" departDelay="2.00" arrival="94.00" arrivalLane="54i_1" arrivalPos="10.00" arrivalPosLat="0.00" arrivalSpeed="15.39" duration="87.00" routeLength="1000.20" waitSteps="1" timeLoss="15.69" rerouteNo="0" devices="tripinfo_1" vType="type2" speedFactor="1.00" vaporized=""/>
    <tripinfo id="2" depart="8.00" departLane="51o_0" departPos="2.30" departPosLat="0.00" departSpeed="0.00" departDelay="3.00" arrival="96.00" arrivalLane="54i_0" arrivalPos="10.00" arrivalPosLat="0.00" arrivalSpeed="13.98" duration="88.00" routeLength="1000.20" waitSteps="0" timeLoss="17.33" rerouteNo="0" devices="tripinfo_2" vType="type2" speedFactor="1.00" vaporized=""/>
    <tripinfo id="3" depart="10.00" departLane="51o_0" departPos="2.30" departPosLat="0.00" departSpeed="0.00" departDelay="5.00" arrival="98.00" arrivalLane="54i_1" arrivalPos="10.00" arrivalPosLat="0.00" arrivalSpeed="13.63" duration="88.00" routeLength="1000.20" waitSteps="0" timeLoss="16.54" rerouteNo="0" devices="tripinfo_3" vType="type2" speedFactor="1.00" vaporized=""/>
    <tripinfo id="4" depart="12.00" departLane="51o_0" departPos="2.30" departPosLat="0.00" departSpeed="0.00" departDelay="7.00" arrival="100.00" arrivalLane="54i_0" arrivalPos="10.00" arrivalPosLat="0.00" arrivalSpeed="15.96" duration="88.00" routeLength="1000.20" waitSteps="0" timeLoss="16.66" rerouteNo="0" devices="tripinfo_4" vType="type2" speedFactor="1.00" vaporized=""/>
    <tripinfo id="5" depart="14.00" departLane="51o_0" departPos="2.30" departPosLat="0.00" departSpeed="0.00" departDelay="4.00" arrival="102.00" arrivalLane="54i_1" arrivalPos="10.00" arrivalPosLat="0.00" arrivalSpeed="15.35" duration="88.00" routeLength="1000.20" waitSteps="0" timeLoss="17.03" rerouteNo="0" devices="tripinfo_5" vType="type2" speedFactor="1.00" vaporized=""/>
    <tripinfo id="11" depart="20.00" departLane="51o_0" departPos="5.10" departPosLat="0.00" departSpeed="0.00" departDelay="5.00" arrival="103.00" arrivalLane="54i_0" arrivalPos="10.00" arrivalPosLat="0.00" arrivalSpeed="12.45" duration="83.00" routeLength="997.40" waitSteps="0" timeLoss="12.16" rerouteNo="0" devices="tripinfo_11" vType="type3" speedFactor="1.00" vaporized=""/>
    <tripinfo id="6" depart="16.00" departLane="51o_0" departPos="2.30" departPosLat="0.00" departSpeed="0.00" departDelay="6.00" arrival="103.00" arrivalLane="54i_1" arrivalPos="10.00" arrivalPosLat="1.41" arrivalSpeed="14.54" duration="87.00" routeLength="1000.20" waitSteps="0" timeLoss="15.94" rerouteNo="0" devices="tripinfo_6" vType="type2" speedFactor="1.00" vaporized=""/>
    <tripinfo id="7" depart="18.00" departLane="51o_0" departPos="2.30" departPosLat="0.00" departSpeed="0.00" departDelay="8.00" arrival="104.00" arrivalLane="54i_1" arrivalPos="10.00" arrivalPosLat="-1.00" arrivalSpeed="13.52" duration="86.00" routeLength="1000.20" waitSteps="0" timeLoss="15.19" rerouteNo="0" devices="tripinfo_7" vType="type2" speedFactor="1.00" vaporized=""/>
    <tripinfo id="8" depart="10.00" departLane="54o_0" departPos="2.30" departPosLat="0.00" departSpeed="0.00" departDelay="0.00" arrival="126.00" arrivalLane="51i_0" arrivalPos="10.00" arrivalPosLat="0.00" arrivalSpeed="15.20" duration="116.00" routeLength="1016.17" waitSteps="32" timeLoss="44.28" rerouteNo="0" devices="tripinfo_8" vType="type2" speedFactor="1.00" vaporized=""/>
    <tripinfo id="10" depart="15.00" departLane="54o_0" departPos="5.10" departPosLat="0.00" departSpeed="0.00" departDelay="0.00" arrival="127.00" arrivalLane="51i_1" arrivalPos="10.00" arrivalPosLat="-0.74" arrivalSpeed="11.08" duration="112.00" routeLength="1013.37" waitSteps="25" timeLoss="40.46" rerouteNo="0" devices="tripinfo_10" vType="type3" speedFactor="1.00" vaporized=""/>
    <tripinfo id="9" depart="11.00" departLane="54o_0" departPos="2.30" departPosLat="0.00" departSpeed="0.00" departDelay="1.00" arrival="128.00" arrivalLane="51i_0" arrivalPos="10.00" arrivalPosLat="0.00" arrivalSpeed="14.11" duration="117.00" routeLength="1016.17" waitSteps="29" timeLoss="44.82" rerouteNo="0" devices="tripinfo_9" vType="type2" speedFactor="1.00" vaporized=""/>
    <tripinfo id="18" depart="20.00" departLane="54o_0" departPos="5.10" departPosLat="0.00" departSpeed="0.00" departDelay="0.00" arrival="130.00" arrivalLane="51i_0" arrivalPos="10.00" arrivalPosLat="0.00" arrivalSpeed="12.81" duration="110.00" routeLength="1013.37" waitSteps="20" timeLoss="38.56" rerouteNo="0" devices="tripinfo_18" vType="type3" speedFactor="1.00" vaporized=""/>
    <tripinfo id="19" depart="23.00" departLane="54o_0" departPos="5.10" departPosLat="0.00" departSpeed="0.00" departDelay="3.00" arrival="131.00" arrivalLane="51i_0" arrivalPos="10.00" arrivalPosLat="1.00" arrivalSpeed="12.77" duration="108.00" routeLength="1013.37" waitSteps="19" timeLoss="36.40" rerouteNo="0" devices="tripinfo_19" vType="type3" speedFactor="1.00" vaporized=""/>
    <tripinfo id="20" depart="26.00" departLane="54o_0" departPos="5.10" departPosLat="0.00" departSpeed="0.00" departDelay="1.00" arrival="133.00" arrivalLane="51i_0" arrivalPos="10.00" arrivalPosLat="0.00" arrivalSpeed="12.67" duration="107.00" routeLength="1013.37" waitSteps="17" timeLoss="35.46" rerouteNo="0" devices="tripinfo_20" vType="type4" speedFactor="1.00" vaporized=""/>
    <tripinfo id="28" depart="30.00" departLane="54o_0" departPos="5.10" departPosLat="0.00" departSpeed="0.00" departDelay="0.00" arrival="135.00" arrivalLane="51i_0" arrivalPos="10.00" arrivalPosLat="0.00" arrivalSpeed="11.89" duration="105.00" routeLength="1013.37" waitSteps="13" timeLoss="33.38" rerouteNo="0" devices="tripinfo_28" vType="type4" speedFactor="1.00" vaporized=""/>
    <tripinfo id="29" depart="33.00" departLane="54o_0" departPos="5.10" departPosLat="0.00" departSpeed="0.00" departDelay="3.00" arrival="137.00" arrivalLane="51i_0" arrivalPos="10.00" arrivalPosLat="0.00" arrivalSpeed="13.60" duration="104.00" routeLength="1013.37" waitSteps="13" timeLoss="32.22" rerouteNo="0" devices="tripinfo_29" vType="type4" speedFactor="1.00" vaporized=""/>
    <tripinfo id="30" depart="37.00" departLane="54o_0" departPos="7.20" departPosLat="0.00" departSpeed="0.00" departDelay="2.00" arrival="139.00" arrivalLane="51i_0" arrivalPos="10.00" arrivalPosLat="0.00" arrivalSpeed="11.62" duration="102.00" routeLength="1011.27" waitSteps="7" timeLoss="30.87" rerouteNo="0" devices="tripinfo_30" vType="type5" speedFactor="1.00" vaporized=""/>
    <tripinfo id="38" depart="41.00" departLane="54o_0" departPos="7.20" departPosLat="0.00" departSpeed="0.00" departDelay="1.00" arrival="141.00" arrivalLane="51i_0" arrivalPos="10.00" arrivalPosLat="0.00" arrivalSpeed="11.68" duration="100.00" routeLength="1011.27" waitSteps="3" timeLoss="28.80" rerouteNo="0" devices="tripinfo_38" vType="type5" speedFactor="1.00" vaporized=""/>
    <tripinfo id="39" depart="47.00" departLane="54o_0" departPos="7.20" departPosLat="0.00" departSpeed="0.00" departDelay="7.00" arrival="143.00" arrivalLane="51i_0" arrivalPos="10.00" arrivalPosLat="0.00" arrivalSpeed="11.01" duration="96.00" routeLength="1011.27" waitSteps="0" timeLoss="24.41" rerouteNo="0" devices="tripinfo_39" vType="type5" speedFactor="1.00" vaporized=""/>
    <tripinfo id="40" depart="52.00" departLane="54o_0" departPos="10.00" departPosLat="0.00" departSpeed="0.00" departDelay="7.00" arrival="145.00" arrivalLane="51i_0" arrivalPos="10.00" arrivalPosLat="0.00" arrivalSpeed="10.76" duration="93.00" routeLength="1008.47" waitSteps="0" timeLoss="21.61" rerouteNo="0" devices="tripinfo_40" vType="type6" speedFactor="1.00" vaporized=""/>
    <tripinfo id="48" depart="58.00" departLane="54o_0" departPos="10.00" departPosLat="0.00" departSpeed="0.00" departDelay="8.00" arrival="148.00" arrivalLane="51i_0" arrivalPos="10.00" arrivalPosLat="0.00" arrivalSpeed="11.99" duration="90.00" routeLength="1008.47" waitSteps="0" timeLoss="18.71" rerouteNo="0" devices="tripinfo_48" vType="type6" speedFactor="1.00" vaporized=""/>
    <tripinfo id="49" depart="64.00" departLane="54o_0" departPos="10.00" departPosLat="0.00" departSpeed="0.00" departDelay="14.00" arrival="151.00" arrivalLane="51i_0" arrivalPos="10.00" arrivalPosLat="0.00" arrivalSpeed="12.02" duration="87.00" routeLength="1008.47" waitSteps="0" timeLoss="15.10" rerouteNo="0" devices="tripinfo_49" vType="type6" speedFactor="1.00" vaporized=""/>
    <tripinfo id="12" depart="23.00" departLane="51o_0" departPos="5.10" departPosLat="0.00" departSpeed="0.00" departDelay="8.00" arrival="154.00" arrivalLane="54i_0" arrivalPos="10.00" arrivalPosLat="0.00" arrivalSpeed="12.43" duration="131.00" routeLength="997.40" waitSteps="45" timeLoss="60.49" rerouteNo="0" devices="tripinfo_12" vType="type3" speedFactor="1.00" vaporized=""/>
    <tripinfo id="13" depart="26.00" departLane="51o_0" departPos="5.10" departPosLat="0.00" departSpeed="0.00" departDelay="11.00" arrival="156.00" arrivalLane="54i_0" arrivalPos="10.00" arrivalPosLat="0.00" arrivalSpeed="12.66" duration="130.00" routeLength="997.40" waitSteps="43" timeLoss="59.46" rerouteNo="0" devices="tripinfo_13" vType="type3" speedFactor="1.00" vaporized=""/>
    <tripinfo id="14" depart="29.00" departLane="51o_0" departPos="5.10" departPosLat="0.00" departSpeed="0.00" departDelay="14.00" arrival="158.00" arrivalLane="54i_1" arrivalPos="10.00" arrivalPosLat="0.00" arrivalSpeed="11.83" duration="129.00" routeLength="997.40" waitSteps="43" timeLoss="58.30" rerouteNo="0" devices="tripinfo_14" vType="type3" speedFactor="1.00" vaporized=""/>
    <tripinfo id="15" depart="32.00" departLane="51o_0" departPos="5.10" departPosLat="0.00" departSpeed="0.00" departDelay="12.00" arrival="160.00" arrivalLane="54i_0" arrivalPos="10.00" arrivalPosLat="0.00" arrivalSpeed="11.96" duration="128.00" routeLength="997.40" waitSteps="39" timeLoss="57.80" rerouteNo="0" devices="tripinfo_15" vType="type3" speedFactor="1.00" vaporized=""/>
    <tripinfo id="16" depart="35.00" departLane="51o_0" departPos="5.10" departPosLat="0.00" departSpeed="0.00" departDelay="15.00" arrival="162.00" arrivalLane="54i_0" arrivalPos="10.00" arrivalPosLat="0.00" arrivalSpeed="11.72" duration="127.00" routeLength="997.40" waitSteps="39" timeLoss="56.79" rerouteNo="0" devices="tripinfo_16" vType="type3" speedFactor="1.00" vaporized=""/>
    <tripinfo id="17" depart="38.00" departLane="51o_0" departPos="5.10" departPosLat="0.00" departSpeed="0.00" departDelay="18.00" arrival="164.00" arrivalLane="54i_0" arrivalPos="10.00" arrivalPosLat="0.00" arrivalSpeed="12.34" duration="126.00" routeLength="997.40" waitSteps="37" timeLoss="55.86" rerouteNo="0" devices="tripinfo_17" vType="type3" speedFactor="1.00" vaporized=""/>
    <tripinfo id="21" depart="41.00" departLane="51o_0" departPos="5.10" departPosLat="0.00" departSpeed="0.00" departDelay="16.00" arrival="166.00" arrivalLane="54i_1" arrivalPos="10.00" arrivalPosLat="0.00" arrivalSpeed="12.40" duration="125.00" routeLength="997.40" waitSteps="36" timeLoss="53.99" rerouteNo="0" devices="tripinfo_21" vType="type4" speedFactor="1.00" vaporized=""/>
    <tripinfo id="23" depart="47.00" departLane="51o_0" departPos="5.10" departPosLat="0.00" departSpeed="0.00" departDelay="22.00" arrival="170.00" arrivalLane="54i_0" arrivalPos="10.00" arrivalPosLat="0.00" arrivalSpeed="12.54" duration="123.00" routeLength="997.40" waitSteps="32" timeLoss="53.45" rerouteNo="0" devices="tripinfo_23" vType="type4" speedFactor="1.00" vaporized=""/>
    <tripinfo id="60" depart="75.00" departLane="54o_0" departPos="2.30" departPosLat="0.00" departSpeed="0.00" departDelay="10.00" arrival="190.00" arrivalLane="51i_0" arrivalPos="10.00" arrivalPosLat="0.00" arrivalSpeed="16.25" duration="115.00" routeLength="1016.17" waitSteps="27" timeLoss="43.33" rerouteNo="0" devices="tripinfo_60" vType="type2" speedFactor="1.00" vaporized=""/>
    <tripinfo id="68" depart="77.00" departLane="54o_0" departPos="2.30" departPosLat="0.00" departSpeed="0.00" departDelay="7.00" arrival="192.00" arrivalLane="51i_0" arrivalPos="10.00" arrivalPosLat="0.00" arrivalSpeed="12.81" duration="115.00" routeLength="1016.17" waitSteps="27" timeLoss="43.20" rerouteNo="0" devices="tripinfo_68" vType="type2" speedFactor="1.00" vaporized=""/>
    <tripinfo id="70" depart="81.00" departLane="54o_0" departPos="5.10" departPosLat="0.00" departSpeed="0.00" departDelay="6.00" arrival="193.00" arrivalLane="51i_0" arrivalPos="10.00" arrivalPosLat="1.46" arrivalSpeed="12.20" duration="112.00" routeLength="1013.37" waitSteps="24" timeLoss="40.07" rerouteNo="0" devices="tripinfo_70" vType="type3" speedFactor="1.00" vaporized=""/>
    <tripinfo id="69" depart="78.00" departLane="54o_0" departPos="2.30" departPosLat="0.00" departSpeed="0.00" departDelay="8.00" arrival="195.00" arrivalLane="51i_0" arrivalPos="10.00" arrivalPosLat="0.00" arrivalSpeed="12.17" duration="117.00" routeLength="1016.17" waitSteps="26" timeLoss="45.20" rerouteNo="0" devices="tripinfo_69" vType="type2" speedFactor="1.00" vaporized=""/>
    <tripinfo id="78" depart="83.00" departLane="54o_0" departPos="5.10" departPosLat="0.00" departSpeed="0.00" departDelay="3.00" arrival="195.00" arrivalLane="51i_1" arrivalPos="10.00" arrivalPosLat="-1.20" arrivalSpeed="11.80" duration="112.00" routeLength="1013.37" waitSteps="22" timeLoss="40.84" rerouteNo="0" devices="tripinfo_78" vType="type3" speedFactor="1.00" vaporized=""/>
    <tripinfo id="79" depart="86.00" departLane="54o_0" departPos="5.10" departPosLat="0.00" departSpeed="0.00" departDelay="6.00" arrival="197.00" arrivalLane="51i_0" arrivalPos="10.00" arrivalPosLat="0.00" arrivalSpeed="13.02" duration="111.00" routeLength="1013.37" waitSteps="19" timeLoss="39.31" rerouteNo="0" devices="tripinfo_79" vType="type3" speedFactor="1.00" vaporized=""/>
    <tripinfo id="80" depart="89.00" departLane="54o_0" departPos="5.10" departPosLat="0.00" departSpeed="0.00" departDelay="4.00" arrival="199.00" arrivalLane="51i_0" arrivalPos="10.00" arrivalPosLat="0.00" arrivalSpeed="12.03" duration="110.00" routeLength="1013.37" waitSteps="20" timeLoss="38.52" rerouteNo="0" devices="tripinfo_80" vType="type4" speedFactor="1.00" vaporized=""/>
    <tripinfo id="88" depart="92.00" departLane="54o_0" departPos="5.10" departPosLat="0.00" departSpeed="0.00" departDelay="2.00" arrival="201.00" arrivalLane="51i_0" arrivalPos="10.00" arrivalPosLat="0.00" arrivalSpeed="10.18" duration="109.00" routeLength="1013.37" waitSteps="18" timeLoss="37.35" rerouteNo="0" devices="tripinfo_88" vType="type4" speedFactor="1.00" vaporized=""/>
    <tripinfo id="89" depart="95.00" departLane="54o_0" departPos="5.10" departPosLat="0.00" departSpeed="0.00" departDelay="5.00" arrival="203.00" arrivalLane="51i_0" arrivalPos="10.00" arrivalPosLat="0.00" arrivalSpeed="12.24" duration="108.00" routeLength="1013.37" waitSteps="16" timeLoss="36.55" rerouteNo="0" devices="tripinfo_89" vType="type4" speedFactor="1.00" vaporized=""/>
    <tripinfo id="90" depart="98.00" departLane="54o_0" departPos="7.20" departPosLat="0.00" departSpeed="0.00" departDelay="3.00" arrival="204.00" arrivalLane="51i_1" arrivalPos="10.00" arrivalPosLat="-1.20" arrivalSpeed="11.18" duration="106.00" routeLength="1011.27" waitSteps="12" timeLoss="34.94" rerouteNo="0" devices="tripinfo_90" vType="type5" speedFactor="1.00" vaporized=""/>
    <tripinfo id="98" depart="103.00" departLane="54o_0" departPos="7.20" departPosLat="0.00" departSpeed="0.00" departDelay="3.00" arrival="206.00" arrivalLane="51i_0" arrivalPos="10.00" arrivalPosLat="0.00" arrivalSpeed="11.74" duration="103.00" routeLength="1011.27" waitSteps="8" timeLoss="31.84" rerouteNo="0" devices="tripinfo_98" vType="type5" speedFactor="1.00" vaporized=""/>
    <tripinfo id="99" depart="107.00" departLane="54o_0" departPos="7.20" departPosLat="0.00" departSpeed="0.00" departDelay="7.00" arrival="220.00" arrivalLane="51i_0" arrivalPos="10.00" arrivalPosLat="0.00" arrivalSpeed="11.99" duration="113.00" routeLength="1011.27" waitSteps="0" timeLoss="41.72" rerouteNo="0" devices="tripinfo_99" vType="type5" speedFactor="1.00" vaporized=""/>
    <tripinfo id="100" depart="113.00" departLane="54o_0" departPos="10.00" departPosLat="0.00" departSpeed="0.00" departDelay="8.00" arrival="225.00" arrivalLane="51i_0" arrivalPos="10.00" arrivalPosLat="0.00" arrivalSpeed="11.52" duration="112.00" routeLength="1008.47" waitSteps="0" timeLoss="40.90" rerouteNo="0" devices="tripinfo_100" vType="type6" speedFactor="1.00" vaporized=""/>
    <tripinfo id="108" depart="118.00" departLane="54o_0" departPos="10.00" departPosLat="0.00" departSpeed="0.00" departDelay="8.00" arrival="228.00" arrivalLane="51i_0" arrivalPos="10.00" arrivalPosLat="0.00" arrivalSpeed="12.20" duration="110.00" routeLength="1008.47" waitSteps="0" timeLoss="38.48" rerouteNo="0" devices="tripinfo_108" vType="type6" speedFactor="1.00" vaporized=""/>
    <tripinfo id="109" depart="123.00" departLane="54o_0" departPos="10.00" departPosLat="0.00" departSpeed="0.00" departDelay="13.00" arrival="230.00" arrivalLane="51i_0" arrivalPos="10.00" arrivalPosLat="0.00" arrivalSpeed="11.37" duration="107.00" routeLength="1008.47" waitSteps="0" timeLoss="36.12" rerouteNo="0" devices="tripinfo_109" vType="type6" speedFactor="1.00" vaporized=""/>
    <tripinfo id="120" depart="134.00" departLane="54o_0" departPos="2.30" departPosLat="0.00" departSpeed="0.00" departDelay="9.00" arrival="238.00" arrivalLane="51i_0" arrivalPos="10.00" arrivalPosLat="0.00" arrivalSpeed="14.42" duration="104.00" routeLength="1016.17" waitSteps="0" timeLoss="32.33" rerouteNo="0" devices="tripinfo_120" vType="type2" speedFactor="1.00" vaporized=""/>
    <tripinfo id="128" depart="136.00" departLane="54o_0" departPos="2.30" departPosLat="0.00" departSpeed="0.00" departDelay="6.00" arrival="241.00" arrivalLane="51i_0" arrivalPos="10.00" arrivalPosLat="0.00" arrivalSpeed="15.07" duration="105.00" routeLength="1016.17" waitSteps="0" timeLoss="32.75" rerouteNo="0" devices="tripinfo_128" vType="type2" speedFactor="1.00" vaporized=""/>
    <tripinfo id="130" depart="140.00" departLane="54o_0" departPos="5.10" departPosLat="0.00" departSpeed="0.00" departDelay="5.00" arrival="241.00" arrivalLane="51i_1" arrivalPos="10.00" arrivalPosLat="-0.06" arrivalSpeed="13.24" duration="101.00" routeLength="1013.37" waitSteps="0" timeLoss="28.89" rerouteNo="0" devices="tripinfo_130" vType="type3" speedFactor="1.00" vaporized=""/>
    <tripinfo id="129" depart="138.00" departLane="54o_0" departPos="2.30" departPosLat="0.00" departSpeed="0.00" departDelay="8.00" arrival="242.00" arrivalLane="51i_0" arrivalPos="10.00" arrivalPosLat="1.41" arrivalSpeed="13.76" duration="104.00" routeLength="1016.17" waitSteps="0" timeLoss="32.13" rerouteNo="0" devices="tripinfo_129" vType="type2" speedFactor="1.00" vaporized=""/>
    <tripinfo id="138" depart="142.00" departLane="54o_0" departPos="5.10" departPosLat="0.00" departSpeed="0.00" departDelay="2.00" arrival="243.00" arrivalLane="51i_1" arrivalPos="10.00" arrivalPosLat="0.00" arrivalSpeed="12.21" duration="101.00" routeLength="1013.37" waitSteps="0" timeLoss="29.34" rerouteNo="0" devices="tripinfo_138" vType="type3" speedFactor="1.00" vaporized=""/>
    <tripinfo id="139" depart="145.00" departLane="54o_0" departPos="5.10" departPosLat="0.00" departSpeed="0.00" departDelay="5.00" arrival="245.00" arrivalLane="51i_0" arrivalPos="10.00" arrivalPosLat="0.00" arrivalSpeed="11.82" duration="100.00" routeLength="1013.37" waitSteps="0" timeLoss="27.95" rerouteNo="0" devices="tripinfo_139" vType="type3" speedFactor="1.00" vaporized=""/>
    <tripinfo id="140" depart="148.00" departLane="54o_0" departPos="5.10" departPosLat="0.00" departSpeed="0.00" departDelay="3.00" arrival="247.00" arrivalLane="51i_0" arrivalPos="10.00" arrivalPosLat="0.00" arrivalSpeed="12.56" duration="99.00" routeLength="1013.37" waitSteps="0" timeLoss="27.37" rerouteNo="0" devices="tripinfo_140" vType="type4" speedFactor="1.00" vaporized=""/>
    <tripinfo id="148" depart="152.00" departLane="54o_0" departPos="5.10" departPosLat="0.00" departSpeed="0.00" departDelay="2.00" arrival="249.00" arrivalLane="51i_0" arrivalPos="10.00" arrivalPosLat="1.00" arrivalSpeed="12.56" duration="97.00" routeLength="1013.37" waitSteps="0" timeLoss="25.37" rerouteNo="0" devices="tripinfo_148" vType="type4" speedFactor="1.00" vaporized=""/>
    <tripinfo id="150" depart="158.00" departLane="54o_0" departPos="7.20" departPosLat="0.00" departSpeed="0.00" departDelay="3.00" arrival="251.00" arrivalLane="51i_0" arrivalPos="10.00" arrivalPosLat="0.00" arrivalSpeed="11.92" duration="93.00" routeLength="1011.27" waitSteps="0" timeLoss="21.81" rerouteNo="0" devices="tripinfo_150" vType="type5" speedFactor="1.00" vaporized=""/>
    <tripinfo id="149" depart="155.00" departLane="54o_0" departPos="5.10" departPosLat="0.00" departSpeed="0.00" departDelay="5.00" arrival="254.00" arrivalLane="51i_0" arrivalPos="10.00" arrivalPosLat="0.00" arrivalSpeed="12.02" duration="99.00" routeLength="1013.37" waitSteps="0" timeLoss="27.61" rerouteNo="0" devices="tripinfo_149" vType="type4" speedFactor="1.00" vaporized=""/>
    <tripinfo id="22" depart="44.00" departLane="51o_0" departPos="5.10" departPosLat="0.00" departSpeed="0.00" departDelay="19.00" arrival="257.00" arrivalLane="54i_0" arrivalPos="10.00" arrivalPosLat="0.00" arrivalSpeed="10.55" duration="213.00" routeLength="997.40" waitSteps="123" timeLoss="142.48" rerouteNo="0" devices="tripinfo_22" vType="type4" speedFactor="1.00" vaporized=""/>
    <tripinfo id="24" depart="50.00" departLane="51o_0" departPos="5.10" departPosLat="0.00" departSpeed="0.00" departDelay="25.00" arrival="261.00" arrivalLane="54i_0" arrivalPos="10.00" arrivalPosLat="0.00" arrivalSpeed="11.98" duration="211.00" routeLength="997.40" waitSteps="114" timeLoss="139.96" rerouteNo="0" devices="tripinfo_24" vType="type4" speedFactor="1.00" vaporized=""/>
    <tripinfo id="50" depart="67.00" departLane="54o_0" departPos="1.70" departPosLat="0.00" departSpeed="0.00" departDelay="12.00" arrival="264.00" arrivalLane="51i_0" arrivalPos="10.00" arrivalPosLat="0.00" arrivalSpeed="5.47" duration="197.00" routeLength="1016.77" waitSteps="0" timeLoss="13.39" rerouteNo="0" devices="tripinfo_50" vType="type1" speedFactor="1.00" vaporized=""/>
    <tripinfo id="25" depart="53.00" departLane="51o_0" departPos="5.10" departPosLat="0.00" departSpeed="0.00" departDelay="23.00" arrival="265.00" arrivalLane="54i_0" arrivalPos="10.00" arrivalPosLat="0.00" arrivalSpeed="12.48" duration="212.00" routeLength="997.40" waitSteps="113" timeLoss="141.66" rerouteNo="0" devices="tripinfo_25" vType="type4" speedFactor="1.00" vaporized=""/>
    <tripinfo id="58" depart="69.00" departLane="54o_0" departPos="1.70" departPosLat="0.00" departSpeed="0.00" departDelay="9.00" arrival="269.00" arrivalLane="51i_0" arrivalPos="10.00" arrivalPosLat="0.00" arrivalSpeed="5.05" duration="200.00" routeLength="1016.77" waitSteps="0" timeLoss="16.41" rerouteNo="0" devices="tripinfo_58" vType="type1" speedFactor="1.00" vaporized=""/>
    <tripinfo id="71" depart="167.00" departLane="51o_0" departPos="5.10" departPosLat="0.00" departSpeed="0.00" departDelay="92.00" arrival="269.00" arrivalLane="54i_0" arrivalPos="10.00" arrivalPosLat="0.00" arrivalSpeed="11.10" duration="102.00" routeLength="997.40" waitSteps="19" timeLoss="31.62" rerouteNo="0" devices="tripinfo_71" vType="type3" speedFactor="1.00" vaporized=""/>
    <tripinfo id="26" depart="56.00" departLane="51o_0" departPos="5.10" departPosLat="0.00" departSpeed="0.00" departDelay="26.00" arrival="272.00" arrivalLane="54i_0" arrivalPos="10.00" arrivalPosLat="0.00" arrivalSpeed="12.94" duration="216.00" routeLength="997.40" waitSteps="113" timeLoss="145.69" rerouteNo="0" devices="tripinfo_26" vType="type4" speedFactor="1.00" vaporized=""/>
    <tripinfo id="59" depart="72.00" departLane="54o_0" departPos="1.70" departPosLat="0.00" departSpeed="0.00" departDelay="12.00" arrival="272.00" arrivalLane="51i_0" arrivalPos="10.00" arrivalPosLat="0.="10.00" arrivalPosLat="0.00" arrivalSpeed="11.83" duration="344.00" routeLength="1011.27" waitSteps="176" timeLoss="272.81" rerouteNo="0" devices="tripinfo_99" vType="type5" speedFactor="1.00" vaporized=""/>
    <tripinfo id="52" depart="135.00" departLane="51o_0" departPos="1.70" departPosLat="0.00" departSpeed="0.00" departDelay="80.00" arrival="457.00" arrivalLane="54i_0" arrivalPos="10.00" arrivalPosLat="0.00" arrivalSpeed="5.46" duration="322.00" routeLength="1000.80" waitSteps="93" timeLoss="141.71" rerouteNo="0" devices="tripinfo_52" vType="type1" speedFactor="1.00" vaporized=""/>
    <tripinfo id="308" depart="312.00" departLane="54o_0" departPos="2.30" departPosLat="0.00" departSpeed="0.00" departDelay="2.00" arrival="460.00" arrivalLane="51i_0" arrivalPos="10.00" arrivalPosLat="0.00" arrivalSpeed="14.27" duration="148.00" routeLength="1016.17" waitSteps="58" timeLoss="76.08" rerouteNo="0" devices="tripinfo_308" vType="type2" speedFactor="1.00" vaporized=""/>
    <tripinfo id="309" depart="314.00" departLane="54o_0" departPos="2.30" departPosLat="0.00" departSpeed="0.00" departDelay="4.00" arrival="468.00" arrivalLane="51i_0" arrivalPos="10.00" arrivalPosLat="0.00" arrivalSpeed="15.74" duration="154.00" routeLength="1016.17" waitSteps="62" timeLoss="82.24" rerouteNo="0" devices="tripinfo_309" vType="type2" speedFactor="1.00" vaporized=""/>
    <tripinfo id="300" depart="310.00" departLane="54o_0" departPos="2.30" departPosLat="0.00" departSpeed="0.00" departDelay="5.00" arrival="470.00" arrivalLane="51i_0" arrivalPos="10.00" arrivalPosLat="0.00" arrivalSpeed="12.18" duration="160.00" routeLength="1016.17" waitSteps="70" timeLoss="88.46" rerouteNo="0" devices="tripinfo_300" vType="type2" speedFactor="1.00" vaporized=""/>
    <tripinfo id="42" depart="100.00" departLane="51o_0" departPos="10.00" departPosLat="0.00" departSpeed="0.00" departDelay="55.00" arrival="470.00" arrivalLane="54i_0" arrivalPos="10.00" arrivalPosLat="0.00" arrivalSpeed="12.16" duration="370.00" routeLength="992.50" waitSteps="205" timeLoss="299.51" rerouteNo="0" devices="tripinfo_42" vType="type6" speedFactor="1.00" vaporized=""/>
    <tripinfo id="43" depart="106.00" departLane="51o_0" departPos="10.00" departPosLat="0.00" departSpeed="0.00" departDelay="61.00" arrival="478.00" arrivalLane="54i_0" arrivalPos="10.00" arrivalPosLat="0.00" arrivalSpeed="12.19" duration="372.00" routeLength="992.50" waitSteps="207" timeLoss="302.24" rerouteNo="0" devices="tripinfo_43" vType="type6" speedFactor="1.00" vaporized=""/>
    <tripinfo id="110" depart="128.00" departLane="54o_0" departPos="1.70" departPosLat="0.00" departSpeed="0.00" departDelay="13.00" arrival="510.00" arrivalLane="51i_0" arrivalPos="10.00" arrivalPosLat="0.00" arrivalSpeed="5.30" duration="382.00" routeLength="1016.77" waitSteps="149" timeLoss="198.58" rerouteNo="0" devices="tripinfo_110" vType="type1" speedFactor="1.00" vaporized=""/>
    <tripinfo id="51" depart="133.00" departLane="51o_0" departPos="1.70" departPosLat="0.00" departSpeed="0.00" departDelay="78.00" arrival="514.00" arrivalLane="54i_0" arrivalPos="10.00" arrivalPosLat="0.00" arrivalSpeed="5.54" duration="381.00" routeLength="1000.80" waitSteps="148" timeLoss="200.30" rerouteNo="0" devices="tripinfo_51" vType="type1" speedFactor="1.00" vaporized=""/>
    <tripinfo id="100" depart="113.00" departLane="54o_0" departPos="10.00" departPosLat="0.00" departSpeed="0.00" departDelay="8.00" arrival="522.00" arrivalLane="51i_0" arrivalPos="10.00" arrivalPosLat="0.00" arrivalSpeed="11.41" duration="409.00" routeLength="1008.47" waitSteps="229" timeLoss="337.34" rerouteNo="0" devices="tripinfo_100" vType="type6" speedFactor="1.00" vaporized=""/>
    <tripinfo id="56" depart="144.00" departLane="51o_0" departPos="1.70" departPosLat="0.00" departSpeed="0.00" departDelay="84.00" arrival="523.00" arrivalLane="54i_0" arrivalPos="10.00" arrivalPosLat="0.00" arrivalSpeed="5.12" duration="379.00" routeLength="1000.80" waitSteps="115" timeLoss="198.36" rerouteNo="0" devices="tripinfo_56" vType="type1" speedFactor="1.00" vaporized=""/>