<?xml version="1.0" encoding="UTF-8"?>

<!-- generated on Friday 21 September 2018 12:22:01 PM IST by SUMO gui Version 0.32.0
<?xml version="1.0" encoding="UTF-8"?>

<configuration xmlns:xsi="http://www.w3.org/2001/XMLSchema-instance" xsi:noNamespaceSchemaLocation="http://sumo.dlr.de/xsd/sumoConfiguration.xsd">

    <input>
        <net-file value="data/cross_2intersections.net.xml"/>
        <route-files value="data/cross_2intersections.rou.xml"/>
    </input>

    <output>
        <tripinfo-output value="tripinfo.xml"/>
    </output>

    <time>
        <begin value="0"/>
    </time>

    <processing>
        <lateral-resolution value="0.64"/>
    </processing>

    <report>
        <verbose value="true"/>
        <no-step-log value="true"/>
    </report>

    <traci_server>
        <remote-port value="33589"/>
    </traci_server>

</configuration>
-->

<tripinfos xmlns:xsi="http://www.w3.org/2001/XMLSchema-instance" xsi:noNamespaceSchemaLocation="http://sumo.dlr.de/xsd/tripinfo_file.xsd">
    <tripinfo id="mixed2.1" depart="17.00" departLane="52o_1" departPos="5.10" departPosLat="-0.49" departSpeed="0.00" departDelay="-0.50" arrival="90.00" arrivalLane="51i_0" arrivalPos="10.00" arrivalPosLat="-0.70" arrivalSpeed="14.63" duration="73.00" routeLength="1115.10" waitSteps="0" timeLoss="11.30" rerouteNo="0" devices="tripinfo_mixed2.1" vType="car" speedFactor="1.25" vaporized=""/>
    <tripinfo id="mixed4.3" depart="52.00" departLane="54o_1" departPos="2.20" departPosLat="0.12" departSpeed="0.00" departDelay="-0.50" arrival="126.00" arrivalLane="53i_0" arrivalPos="10.00" arrivalPosLat="-1.20" arrivalSpeed="16.44" duration="74.00" routeLength="1018.00" waitSteps="0" timeLoss="12.44" rerouteNo="0" devices="tripinfo_mixed4.3" vType="moped" speedFactor="1.62" vaporized=""/>
    <tripinfo id="mixed3.2" depart="35.00" departLane="53o_0" departPos="2.20" departPosLat="-1.19" departSpeed="0.00" departDelay="0.00" arrival="139.00" arrivalLane="54i_0" arrivalPos="10.00" arrivalPosLat="-1.20" arrivalSpeed="13.03" duration="104.00" routeLength="1018.00" waitSteps="13" timeLoss="32.54" rerouteNo="0" devices="tripinfo_mixed3.2" vType="moped" speedFactor="1.12" vaporized=""/>
    <tripinfo id="mixed6.0" depart="0.00" departLane="154o_1" departPos="2.20" departPosLat="0.90" departSpeed="0.00" departDelay="0.00" arrival="143.00" arrivalLane="153i_0" arrivalPos="10.00" arrivalPosLat="-1.20" arrivalSpeed="15.81" duration="143.00" routeLength="2034.40" waitSteps="0" timeLoss="11.10" rerouteNo="0" devices="tripinfo_mixed6.0" vType="moped" speedFactor="1.36" vaporized=""/>
    <tripinfo id="mixed4.4" depart="70.00" departLane="54o_0" departPos="2.20" departPosLat="0.81" departSpeed="0.00" departDelay="0.00" arrival="144.00" arrivalLane="53i_0" arrivalPos="10.00" arrivalPosLat="-1.20" arrivalSpeed="15.70" duration="74.00" routeLength="1018.00" waitSteps="0" timeLoss="10.36" rerouteNo="0" devices="tripinfo_mixed4.4" vType="moped" speedFactor="1.41" vaporized=""/>
    <tripinfo id="mixed3.1" depart="17.00" departLane="53o_0" departPos="5.10" departPosLat="-0.22" departSpeed="0.00" departDelay="-0.50" arrival="154.00" arrivalLane="54i_0" arrivalPos="10.00" arrivalPosLat="-0.70" arrivalSpeed="10.52" duration="137.00" routeLength="1015.10" waitSteps="32" timeLoss="48.02" rerouteNo="0" devices="tripinfo_mixed3.1" vType="car" speedFactor="0.80" vaporized=""/>
    <tripinfo id="mixed3.0" depart="0.00" departLane="53o_2" departPos="2.20" departPosLat="0.11" departSpeed="0.00" departDelay="0.00" arrival="156.00" arrivalLane="54i_0" arrivalPos="10.00" arrivalPosLat="-1.20" arrivalSpeed="9.58" duration="156.00" routeLength="1018.00" waitSteps="47" timeLoss="79.12" rerouteNo="0" devices="tripinfo_mixed3.0" vType="moped" speedFactor="0.98" vaporized=""/>
    <tripinfo id="mixed3.3" depart="52.00" departLane="53o_1" departPos="5.10" departPosLat="0.66" departSpeed="0.00" departDelay="-0.50" arrival="160.00" arrivalLane="54i_0" arrivalPos="10.00" arrivalPosLat="-0.70" arrivalSpeed="9.70" duration="108.00" routeLength="1015.10" waitSteps="0" timeLoss="17.16" rerouteNo="0" devices="tripinfo_mixed3.3" vType="car" speedFactor="0.79" vaporized=""/>
    <tripinfo id="mixed4.1" depart="17.00" departLane="54o_2" departPos="2.20" departPosLat="0.21" departSpeed="0.00" departDelay="-0.50" arrival="162.00" arrivalLane="53i_0" arrivalPos="10.00" arrivalPosLat="-1.20" arrivalSpeed="8.73" duration="145.00" routeLength="1018.00" waitSteps="26" timeLoss="43.47" rerouteNo="0" devices="tripinfo_mixed4.1" vType="moped" speedFactor="0.71" vaporized=""/>
    <tripinfo id="mixed3.4" depart="70.00" departLane="53o_2" departPos="2.20" departPosLat="-1.02" departSpeed="0.00" departDelay="0.00" arrival="176.00" arrivalLane="54i_0" arrivalPos="10.00" arrivalPosLat="-1.20" arrivalSpeed="9.41" duration="106.00" routeLength="1018.00" waitSteps="0" timeLoss="11.73" rerouteNo="0" devices="tripinfo_mixed3.4" vType="moped" speedFactor="0.76" vaporized=""/>
    <tripinfo id="mixed4.2" depart="35.00" departLane="54o_0" departPos="2.20" departPosLat="0.83" departSpeed="0.00" departDelay="0.00" arrival="179.00" arrivalLane="53i_0" arrivalPos="10.00" arrivalPosLat="-1.20" arrivalSpeed="6.49" duration="144.00" routeLength="1018.00" waitSteps="0" timeLoss="15.36" rerouteNo="0" devices="tripinfo_mixed4.2" vType="moped" speedFactor="0.56" vaporized=""/>
    <tripinfo id="mixed4.0" depart="0.00" departLane="54o_1" departPos="2.20" departPosLat="-0.08" departSpeed="0.00" departDelay="0.00" arrival="183.00" arrivalLane="53i_0" arrivalPos="10.00" arrivalPosLat="-1.20" arrivalSpeed="7.39" duration="183.00" routeLength="1018.00" waitSteps="34" timeLoss="50.63" rerouteNo="0" devices="tripinfo_mixed4.0" vType="moped" speedFactor="0.54" vaporized=""/>
    <tripinfo id="mixed2.3" depart="52.00" departLane="52o_2" departPos="5.10" departPosLat="-0.53" departSpeed="0.00" departDelay="-0.50" arrival="183.00" arrivalLane="51i_0" arrivalPos="10.00" arrivalPosLat="-0.70" arrivalSpeed="13.98" duration="131.00" routeLength="1115.10" waitSteps="52" timeLoss="69.97" rerouteNo="0" devices="tripinfo_mixed2.3" vType="car" speedFactor="1.26" vaporized=""/>
    <tripinfo id="mixed5.1" depart="17.00" departLane="153o_1" departPos="5.10" departPosLat="0.13" departSpeed="0.00" departDelay="-0.50" arrival="188.00" arrivalLane="154i_0" arrivalPos="1010.00" arrivalPosLat="-0.70" arrivalSpeed="20.69" duration="171.00" routeLength="2031.50" waitSteps="40" timeLoss="55.92" rerouteNo="0" devices="tripinfo_mixed5.1" vType="car" speedFactor="1.08" vaporized=""/>
    <tripinfo id="mixed2.5" depart="87.00" departLane="52o_1" departPos="5.10" departPosLat="-0.27" departSpeed="0.00" departDelay="-0.50" arrival="192.00" arrivalLane="51i_0" arrivalPos="10.00" arrivalPosLat="-0.70" arrivalSpeed="13.68" duration="105.00" routeLength="1115.10" waitSteps="17" timeLoss="33.68" rerouteNo="0" devices="tripinfo_mixed2.5" vType="car" speedFactor="1.08" vaporized=""/>
    <tripinfo id="mixed5.3" depart="52.00" departLane="153o_2" departPos="2.20" departPosLat="0.06" departSpeed="0.00" departDelay="-0.50" arrival="193.00" arrivalLane="154i_0" arrivalPos="1010.00" arrivalPosLat="-1.20" arrivalSpeed="16.30" duration="141.00" routeLength="2034.40" waitSteps="0" timeLoss="18.62" rerouteNo="0" devices="tripinfo_mixed5.3" vType="moped" speedFactor="1.49" vaporized=""/>
    <tripinfo id="mixed5.2" depart="35.00" departLane="153o_1" departPos="5.10" departPosLat="-0.53" departSpeed="0.00" departDelay="0.00" arrival="195.00" arrivalLane="154i_1" arrivalPos="1010.00" arrivalPosLat="-1.38" arrivalSpeed="19.07" duration="160.00" routeLength="2031.50" waitSteps="20" timeLoss="37.88" rerouteNo="0" devices="tripinfo_mixed5.2" vType="car" speedFactor="1.02" vaporized=""/>
    <tripinfo id="mixed5.0" depart="0.00" departLane="153o_1" departPos="5.10" departPosLat="0.09" departSpeed="0.00" departDelay="0.00" arrival="195.00" arrivalLane="154i_0" arrivalPos="1010.00" arrivalPosLat="-0.70" arrivalSpeed="19.05" duration="195.00" routeLength="2031.50" waitSteps="57" timeLoss="74.11" rerouteNo="0" devices="tripinfo_mixed5.0" vType="car" speedFactor="1.03" vaporized=""/>
    <tripinfo id="mixed2.4" depart="70.00" departLane="52o_1" departPos="2.20" departPosLat="0.50" departSpeed="0.00" departDelay="0.00" arrival="196.00" arrivalLane="51i_0" arrivalPos="10.00" arrivalPosLat="0.68" arrivalSpeed="12.50" duration="126.00" routeLength="1118.00" waitSteps="23" timeLoss="46.55" rerouteNo="0" devices="tripinfo_mixed2.4" vType="moped" speedFactor="1.08" vaporized=""/>
    <tripinfo id="mixed2.2" depart="35.00" departLane="52o_2" departPos="2.20" departPosLat="0.33" departSpeed="0.00" departDelay="0.00" arrival="196.00" arrivalLane="51i_0" arrivalPos="10.00" arrivalPosLat="-1.20" arrivalSpeed="11.98" duration="161.00" routeLength="1118.00" waitSteps="57" timeLoss="80.49" rerouteNo="0" devices="tripinfo_mixed2.2" vType="moped" speedFactor="1.04" vaporized=""/>
    <tripinfo id="mixed2.6" depart="105.00" departLane="52o_1" departPos="2.20" departPosLat="-0.52" departSpeed="0.00" departDelay="0.00" arrival="200.00" arrivalLane="51i_0" arrivalPos="10.00" arrivalPosLat="-1.20" arrivalSpeed="11.58" duration="95.00" routeLength="1118.00" waitSteps="0" timeLoss="13.15" rerouteNo="0" devices="tripinfo_mixed2.6" vType="moped" speedFactor="1.01" vaporized=""/>
    <tripinfo id="mixed6.5" depart="87.00" departLane="154o_1" departPos="2.20" departPosLat="-0.26" departSpeed="0.00" departDelay="-0.50" arrival="221.00" arrivalLane="153i_0" arrivalPos="10.00" arrivalPosLat="-1.20" arrivalSpeed="16.53" duration="134.00" routeLength="2034.40" waitSteps="0" timeLoss="11.39" rerouteNo="0" devices="tripinfo_mixed6.5" vType="moped" speedFactor="1.68" vaporized=""/>
    <tripinfo id="mixed3.6" depart="105.00" departLane="53o_2" departPos="2.20" departPosLat="0.04" departSpeed="0.00" departDelay="0.00" arrival="223.00" arrivalLane="54i_0" arrivalPos="10.00" arrivalPosLat="-1.20" arrivalSpeed="16.14" duration="118.00" routeLength="1018.00" waitSteps="33" timeLoss="54.46" rerouteNo="0" devices="tripinfo_mixed3.6" vType="moped" speedFactor="1.40" vaporized=""/>
    <tripinfo id="mixed4.8" depart="140.00" departLane="54o_0" departPos="5.10" departPosLat="0.36" departSpeed="0.00" departDelay="0.00" arrival="228.00" arrivalLane="53i_0" arrivalPos="10.00" arrivalPosLat="-0.70" arrivalSpeed="14.01" duration="88.00" routeLength="1015.10" waitSteps="9" timeLoss="23.66" rerouteNo="0" devices="tripinfo_mixed4.8" vType="car" speedFactor="1.11" vaporized=""/>
    <tripinfo id="mixed1.5" depart="87.00" departLane="51o_2" departPos="2.20" departPosLat="0.46" departSpeed="0.00" departDelay="-0.50" arrival="229.00" arrivalLane="2i_0" arrivalPos="488.65" arrivalPosLat="-1.20" arrivalSpeed="3.33" duration="142.00" routeLength="1601.37" waitSteps="9" timeLoss="40.29" rerouteNo="0" devices="tripinfo_mixed1.5" vType="moped" speedFactor="1.26" vaporized=""/>
    <tripinfo id="mixed1.3" depart="52.00" departLane="51o_1" departPos="5.10" departPosLat="-0.08" departSpeed="0.00" departDelay="-0.50" arrival="229.00" arrivalLane="2i_0" arrivalPos="488.65" arrivalPosLat="1.18" arrivalSpeed="6.67" duration="177.00" routeLength="1598.47" waitSteps="50" timeLoss="81.46" rerouteNo="0" devices="tripinfo_mixed1.3" vType="car" speedFactor="1.06" vaporized=""/>
    <tripinfo id="mixed1.4" depart="70.00" departLane="51o_2" departPos="5.10" departPosLat="-0.37" departSpeed="0.00" departDelay="0.00" arrival="233.00" arrivalLane="2i_0" arrivalPos="488.65" arrivalPosLat="1.30" arrivalSpeed="12.49" duration="163.00" routeLength="1598.47" waitSteps="29" timeLoss="54.18" rerouteNo="0" devices="tripinfo_mixed1.4" vType="car" speedFactor="0.94" vaporized=""/>
    <tripinfo id="mixed6.3" depart="52.00" departLane="154o_0" departPos="2.20" departPosLat="-0.57" departSpeed="0.00" departDelay="-0.50" arrival="234.00" arrivalLane="153i_0" arrivalPos="10.00" arrivalPosLat="-1.20" arrivalSpeed="11.50" duration="182.00" routeLength="2034.40" waitSteps="0" timeLoss="11.85" rerouteNo="0" devices="tripinfo_mixed6.3" vType="moped" speedFactor="0.98" vaporized=""/>
    <tripinfo id="mixed6.4" depart="70.00" departLane="154o_2" departPos="2.20" departPosLat="0.99" departSpeed="0.00" departDelay="0.00" arrival="234.00" arrivalLane="153i_0" arrivalPos="10.00" arrivalPosLat="0.68" arrivalSpeed="13.23" duration="164.00" routeLength="2034.40" waitSteps="0" timeLoss="11.59" rerouteNo="0" devices="tripinfo_mixed6.4" vType="moped" speedFactor="1.12" vaporized=""/>
    <tripinfo id="mixed3.7" depart="122.00" departLane="53o_1" departPos="2.20" departPosLat="0.17" departSpeed="0.00" departDelay="-0.50" arrival="235.00" arrivalLane="54i_0" arrivalPos="10.00" arrivalPosLat="-1.20" arrivalSpeed="11.21" duration="113.00" routeLength="1018.00" waitSteps="16" timeLoss="36.30" rerouteNo="0" devices="tripinfo_mixed3.7" vType="moped" speedFactor="0.99" vaporized=""/>
    <tripinfo id="mixed1.2" depart="35.00" departLane="51o_0" departPos="2.20" departPosLat="0.25" departSpeed="0.00" departDelay="0.00" arrival="235.00" arrivalLane="2i_1" arrivalPos="488.65" arrivalPosLat="-1.20" arrivalSpeed="11.61" duration="200.00" routeLength="1601.37" waitSteps="57" timeLoss="99.74" rerouteNo="0" devices="tripinfo_mixed1.2" vType="moped" speedFactor="1.33" vaporized=""/>
    <tripinfo id="mixed1.6" depart="105.00" departLane="51o_0" departPos="2.20" departPosLat="-0.38" departSpeed="0.00" departDelay="0.00" arrival="235.00" arrivalLane="2i_0" arrivalPos="488.65" arrivalPosLat="-1.20" arrivalSpeed="16.47" duration="130.00" routeLength="1601.37" waitSteps="0" timeLoss="26.03" rerouteNo="0" devices="tripinfo_mixed1.6" vType="moped" speedFactor="1.19" vaporized=""/>
    <tripinfo id="mixed4.7" depart="122.00" departLane="54o_0" departPos="2.20" departPosLat="-0.45" departSpeed="0.00" departDelay="-0.50" arrival="236.00" arrivalLane="53i_0" arrivalPos="10.00" arrivalPosLat="-1.20" arrivalSpeed="11.46" duration="114.00" routeLength="1018.00" waitSteps="16" timeLoss="35.23" rerouteNo="0" devices="tripinfo_mixed4.7" vType="moped" speedFactor="0.95" vaporized=""/>
    <tripinfo id="mixed4.9" depart="157.00" departLane="54o_1" departPos="5.10" departPosLat="0.45" departSpeed="0.00" departDelay="-0.50" arrival="236.00" arrivalLane="53i_0" arrivalPos="10.00" arrivalPosLat="1.18" arrivalSpeed="12.44" duration="79.00" routeLength="1015.10" waitSteps="0" timeLoss="9.31" rerouteNo="0" devices="tripinfo_mixed4.9" vType="car" speedFactor="1.03" vaporized=""/>
    <tripinfo id="mixed1.7" depart="122.00" departLane="51o_1" departPos="5.10" departPosLat="-0.09" departSpeed="0.00" departDelay="-0.50" arrival="239.00" arrivalLane="2i_0" arrivalPos="488.65" arrivalPosLat="-0.70" arrivalSpeed="18.93" duration="117.00" routeLength="1598.47" waitSteps="0" timeLoss="14.20" rerouteNo="0" devices="tripinfo_mixed1.7" vType="car" speedFactor="0.99" vaporized=""/>
    <tripinfo id="mixed3.5" depart="87.00" departLane="53o_2" departPos="2.20" departPosLat="-0.25" departSpeed="0.00" departDelay="-0.50" arrival="245.00" arrivalLane="54i_0" arrivalPos="10.00" arrivalPosLat="-1.20" arrivalSpeed="9.76" duration="158.00" routeLength="1018.00" waitSteps="49" timeLoss="68.79" rerouteNo="0" devices="tripinfo_mixed3.5" vType="moped" speedFactor="0.81" vaporized=""/>
    <tripinfo id="mixed1.1" depart="17.00" departLane="51o_2" departPos="2.20" departPosLat="-0.26" departSpeed="0.00" departDelay="-0.50" arrival="248.00" arrivalLane="2i_0" arrivalPos="488.65" arrivalPosLat="-1.20" arrivalSpeed="12.89" duration="231.00" routeLength="1601.37" waitSteps="59" timeLoss="83.32" rerouteNo="0" devices="tripinfo_mixed1.1" vType="moped" speedFactor="0.69" vaporized=""/>
    <tripinfo id="mixed6.1" depart="17.00" departLane="154o_1" departPos="2.20" departPosLat="-0.95" departSpeed="0.00" departDelay="-0.50" arrival="249.00" arrivalLane="153i_0" arrivalPos="10.00" arrivalPosLat="-1.20" arrivalSpeed="9.06" duration="232.00" routeLength="2034.40" waitSteps="0" timeLoss="13.40" rerouteNo="0" devices="tripinfo_mixed6.1" vType="moped" speedFactor="0.74" vaporized=""/>
    <tripinfo id="mixed3.8" depart="140.00" departLane="53o_1" departPos="2.20" departPosLat="1.04" departSpeed="0.00" departDelay="0.00" arrival="254.00" arrivalLane="54i_0" arrivalPos="10.00" arrivalPosLat="-1.20" arrivalSpeed="8.55" duration="114.00" routeLength="1018.00" waitSteps="0" timeLoss="12.68" rerouteNo="0" devices="tripinfo_mixed3.8" vType="moped" speedFactor="0.71" vaporized=""/>
    <tripinfo id="mixed4.6" depart="105.00" departLane="54o_2" departPos="2.20" departPosLat="0.55" departSpeed="0.00" departDelay="0.00" arrival="265.00" arrivalLane="53i_0" arrivalPos="10.00" arrivalPosLat="-1.20" arrivalSpeed="7.32" duration="160.00" routeLength="1018.00" waitSteps="23" timeLoss="39.20" rerouteNo="0" devices="tripinfo_mixed4.6" vType="moped" speedFactor="0.60" vaporized=""/>
    <tripinfo id="mixed2.7" depart="122.00" departLane="52o_0" departPos="2.20" departPosLat="-0.55" departSpeed="0.00" departDelay="-0.50" arrival="267.00" arrivalLane="51i_0" arrivalPos="10.00" arrivalPosLat="-1.20" arrivalSpeed="16.08" duration="145.00" routeLength="1118.00" waitSteps="53" timeLoss="77.15" rerouteNo="0" devices="tripinfo_mixed2.7" vType="moped" speedFactor="1.48" vaporized=""/>
    <tripinfo id="mixed6.2" depart="35.00" departLane="154o_0" departPos="5.10" departPosLat="0.44" departSpeed="0.00" departDelay="0.00" arrival="273.00" arrivalLane="153i_0" arrivalPos="10.00" arrivalPosLat="-0.70" arrivalSpeed="9.52" duration="238.00" routeLength="2031.50" waitSteps="0" timeLoss="19.90" rerouteNo="0" devices="tripinfo_mixed6.2" vType="car" speedFactor="0.75" vaporized=""/>
    <tripinfo id="mixed2.9" depart="157.00" departLane="52o_1" departPos="5.10" departPosLat="0.12" departSpeed="0.00" departDelay="-0.50" arrival="276.00" arrivalLane="51i_0" arrivalPos="10.00" arrivalPosLat="-0.70" arrivalSpeed="13.91" duration="119.00" routeLength="1115.10" waitSteps="36" timeLoss="53.44" rerouteNo="0" devices="tripinfo_mixed2.9" vType="car" speedFactor="1.17" vaporized=""/>
    <tripinfo id="mixed5.8" depart="140.00" departLane="153o_1" departPos="5.10" departPosLat="-0.35" departSpeed="0.00" departDelay="0.00" arrival="276.00" arrivalLane="154i_0" arrivalPos="1010.00" arrivalPosLat="-0.70" arrivalSpeed="23.10" duration="136.00" routeLength="2031.50" waitSteps="8" timeLoss="35.65" rerouteNo="0" devices="tripinfo_mixed5.8" vType="car" speedFactor="1.24" vaporized=""/>
    <tripinfo id="mixed4.5" depart="87.00" departLane="54o_1" departPos="2.20" departPosLat="0.06" departSpeed="0.00" departDelay="-0.50" arrival="281.00" arrivalLane="53i_0" arrivalPos="10.00" arrivalPosLat="-1.20" arrivalSpeed="6.61" duration="194.00" routeLength="1018.00" waitSteps="34" timeLoss="52.09" rerouteNo="0" devices="tripinfo_mixed4.5" vType="moped" speedFactor="0.51" vaporized=""/>
    <tripinfo id="mixed2.10" depart="175.00" departLane="52o_2" departPos="5.10" departPosLat="-0.53" departSpeed="0.00" departDelay="0.00" arrival="283.00" arrivalLane="51i_0" arrivalPos="10.00" arrivalPosLat="-0.70" arrivalSpeed="12.52" duration="108.00" routeLength="1115.10" waitSteps="17" timeLoss="31.94" rerouteNo="0" devices="tripinfo_mixed2.10" vType="car" speedFactor="1.01" vaporized=""/>
    <tripinfo id="mixed2.8" depart="140.00" departLane="52o_0" departPos="5.10" departPosLat="-0.68" departSpeed="0.00" departDelay="0.00" arrival="285.00" arrivalLane="51i_0" arrivalPos="10.00" arrivalPosLat="0.58" arrivalSpeed="10.52" duration="145.00" routeLength="1115.10" waitSteps="52" timeLoss="71.34" rerouteNo="0" devices="tripinfo_mixed2.8" vType="car" speedFactor="1.04" vaporized=""/>
    <tripinfo id="mixed5.5" depart="87.00" departLane="153o_0" departPos="2.20" departPosLat="0.96" departSpeed="0.00" departDelay="-0.50" arrival="288.00" arrivalLane="154i_0" arrivalPos="1010.00" arrivalPosLat="-1.20" arrivalSpeed="16.50" duration="201.00" routeLength="2034.40" waitSteps="51" timeLoss="72.48" rerouteNo="0" devices="tripinfo_mixed5.5" vType="moped" speedFactor="1.25" vaporized=""/>
    <tripinfo id="mixed3.9" depart="157.00" departLane="53o_2" departPos="2.20" departPosLat="0.08" departSpeed="0.00" departDelay="-0.50" arrival="290.00" arrivalLane="54i_0" arrivalPos="10.00" arrivalPosLat="-1.20" arrivalSpeed="7.28" duration="133.00" routeLength="1018.00" waitSteps="0" timeLoss="11.00" rerouteNo="0" devices="tripinfo_mixed3.9" vType="moped" speedFactor="0.59" vaporized=""/>
    <tripinfo id="mixed5.9" depart="157.00" departLane="153o_2" departPos="2.20" departPosLat="-0.82" departSpeed="0.00" departDelay="-0.50" arrival="295.00" arrivalLane="154i_0" arrivalPos="1010.00" arrivalPosLat="-1.20" arrivalSpeed="16.28" duration="138.00" routeLength="2034.40" waitSteps="0" timeLoss="12.03" rerouteNo="0" devices="tripinfo_mixed5.9" vType="moped" speedFactor="1.33" vaporized=""/>
    <tripinfo id="mixed2.11" depart="192.00" departLane="52o_0" departPos="5.10" departPosLat="0.02" departSpeed="0.00" departDelay="-0.50" arrival="300.00" arrivalLane="51i_0" arrivalPos="10.00" arrivalPosLat="-0.70" arrivalSpeed="9.79" duration="108.00" routeLength="1115.10" waitSteps="0" timeLoss="13.46" rerouteNo="0" devices="tripinfo_mixed2.11" vType="car" speedFactor="0.81" vaporized=""/>
    <tripinfo id="mixed5.6" depart="105.00" departLane="153o_2" departPos="2.20" departPosLat="-1.01" departSpeed="0.00" departDelay="0.00" arrival="306.00" arrivalLane="154i_0" arrivalPos="1010.00" arrivalPosLat="-1.20" arrivalSpeed="16.12" duration="201.00" routeLength="2034.40" waitSteps="33" timeLoss="54.46" rerouteNo="0" devices="tripinfo_mixed5.6" vType="moped" speedFactor="0.85" vaporized=""/>
    <tripinfo id="mixed5.7" depart="122.00" departLane="153o_0" departPos="2.20" departPosLat="-0.11" departSpeed="0.00" departDelay="-0.50" arrival="307.00" arrivalLane="154i_0" arrivalPos="1010.00" arrivalPosLat="0.68" arrivalSpeed="16.04" duration="185.00" routeLength="2034.40" waitSteps="15" timeLoss="36.79" rerouteNo="0" devices="tripinfo_mixed5.7" vType="moped" speedFactor="0.84" vaporized=""/>
    <tripinfo id="mixed2.0" depart="0.00" departLane="52o_2" departPos="2.20" departPosLat="0.58" departSpeed="0.00" departDelay="0.00" arrival="309.00" arrivalLane="51i_0" arrivalPos="10.00" arrivalPosLat="-1.20" arrivalSpeed="5.05" duration="309.00" routeLength="1118.00" waitSteps="48" timeLoss="71.67" rerouteNo="0" devices="tripinfo_mixed2.0" vType="moped" speedFactor="0.32" vaporized=""/>
    <tripinfo id="mixed3.11" depart="192.00" departLane="53o_1" departPos="5.10" departPosLat="-0.45" departSpeed="0.00" departDelay="-0.50" arrival="312.00" arrivalLane="54i_0" arrivalPos="10.00" arrivalPosLat="-0.70" arrivalSpeed="16.51" duration="120.00" routeLength="1015.10" waitSteps="48" timeLoss="63.76" rerouteNo="0" devices="tripinfo_mixed3.11" vType="car" speedFactor="1.28" vaporized=""/>
    <tripinfo id="mixed1.13" depart="227.00" departLane="51o_1" departPos="5.10" departPosLat="-0.61" departSpeed="0.00" departDelay="-0.50" arrival="313.00" arrivalLane="2i_2" arrivalPos="488.65" arrivalPosLat="-1.34" arrivalSpeed="21.20" duration="86.00" routeLength="1598.47" waitSteps="0" timeLoss="17.81" rerouteNo="0" devices="tripinfo_mixed1.13" vType="car" speedFactor="1.50" vaporized=""/>
    <tripinfo id="mixed4.13" depart="227.00" departLane="54o_0" departPos="5.10" departPosLat="0.69" departSpeed="0.00" departDelay="-0.50" arrival="314.00" arrivalLane="53i_0" arrivalPos="10.00" arrivalPosLat="-0.70" arrivalSpeed="14.76" duration="87.00" routeLength="1015.10" waitSteps="11" timeLoss="26.74" rerouteNo="0" devices="tripinfo_mixed4.13" vType="car" speedFactor="1.19" vaporized=""/>
    <tripinfo id="mixed3.12" depart="210.00" departLane="53o_0" departPos="2.20" departPosLat="1.07" departSpeed="0.00" departDelay="0.00" arrival="314.00" arrivalLane="54i_0" arrivalPos="10.00" arrivalPosLat="-1.20" arrivalSpeed="14.26" duration="104.00" routeLength="1018.00" waitSteps="16" timeLoss="38.22" rerouteNo="0" devices="tripinfo_mixed3.12" vType="moped" speedFactor="1.30" vaporized=""/>
    <tripinfo id="mixed4.11" depart="192.00" departLane="54o_2" departPos="2.20" departPosLat="-0.49" departSpeed="0.00" departDelay="-0.50" arrival="317.00" arrivalLane="53i_0" arrivalPos="10.00" arrivalPosLat="0.32" arrivalSpeed="14.92" duration="125.00" routeLength="1018.00" waitSteps="35" timeLoss="61.29" rerouteNo="0" devices="tripinfo_mixed4.11" vType="moped" speedFactor="1.39" vaporized=""/>
    <tripinfo id="mixed4.12" depart="210.00" departLane="54o_2" departPos="5.10" departPosLat="-0.46" departSpeed="0.00" departDelay="0.00" arrival="319.00" arrivalLane="53i_0" arrivalPos="10.00" arrivalPosLat="-0.70" arrivalSpeed="12.64" duration="109.00" routeLength="1015.10" waitSteps="26" timeLoss="41.90" rerouteNo="0" devices="tripinfo_mixed4.12" vType="car" speedFactor="1.07" vaporized=""/>
    <tripinfo id="mixed6.8" depart="140.00" departLane="154o_1" departPos="5.10" departPosLat="-0.59" departSpeed="0.00" departDelay="0.00" arrival="319.00" arrivalLane="153i_1" arrivalPos="10.00" arrivalPosLat="-1.38" arrivalSpeed="14.17" duration="179.00" routeLength="2031.50" waitSteps="7" timeLoss="26.03" rerouteNo="0" devices="tripinfo_mixed6.8" vType="car" speedFactor="1.06" vaporized=""/>
    <tripinfo id="mixed6.6" depart="105.00" departLane="154o_1" departPos="5.10" departPosLat="0.59" departSpeed="0.00" departDelay="0.00" arrival="320.00" arrivalLane="153i_0" arrivalPos="10.00" arrivalPosLat="-0.70" arrivalSpeed="13.63" duration="215.00" routeLength="2031.50" waitSteps="40" timeLoss="59.25" rerouteNo="0" devices="tripinfo_mixed6.6" vType="car" speedFactor="1.05" vaporized=""/>
    <tripinfo id="mixed3.13" depart="227.00" departLane="53o_2" departPos="2.20" departPosLat="0.68" departSpeed="0.00" departDelay="-0.50" arrival="321.00" arrivalLane="54i_0" arrivalPos="10.00" arrivalPosLat="-1.20" arrivalSpeed="11.87" duration="94.00" routeLength="1018.00" waitSteps="1" timeLoss="21.49" rerouteNo="0" devices="tripinfo_mixed3.13" vType="moped" speedFactor="1.08" vaporized=""/>
    <tripinfo id="mixed1.10" depart="175.00" departLane="51o_2" departPos="2.20" departPosLat="0.65" departSpeed="0.00" departDelay="0.00" arrival="327.00" arrivalLane="2i_0" arrivalPos="488.65" arrivalPosLat="-1.20" arrivalSpeed="16.53" duration="152.00" routeLength="1601.37" waitSteps="8" timeLoss="35.74" rerouteNo="0" devices="tripinfo_mixed1.10" vType="moped" speedFactor="0.92" vaporized=""/>
    <tripinfo id="mixed6.10" depart="175.00" departLane="154o_0" departPos="2.20" departPosLat="1.07" departSpeed="0.00" departDelay="0.00" arrival="329.00" arrivalLane="153i_0" arrivalPos="10.00" arrivalPosLat="-1.20" arrivalSpeed="14.11" duration="154.00" routeLength="2034.40" waitSteps="0" timeLoss="11.25" rerouteNo="0" devices="tripinfo_mixed6.10" vType="moped" speedFactor="1.23" vaporized=""/>
    <tripinfo id="mixed4.15" depart="262.00" departLane="54o_0" departPos="5.10" departPosLat="-0.48" departSpeed="0.00" departDelay="-0.50" arrival="329.00" arrivalLane="53i_0" arrivalPos="10.00" arrivalPosLat="-0.70" arrivalSpeed="12.54" duration="67.00" routeLength="1015.10" waitSteps="0" timeLoss="9.00" rerouteNo="0" devices="tripinfo_mixed4.15" vType="car" speedFactor="1.24" vaporized=""/>
    <tripinfo id="mixed3.10" depart="175.00" departLane="53o_2" departPos="2.20" departPosLat="0.94" departSpeed="0.00" departDelay="0.00" arrival="336.00" arrivalLane="54i_0" arrivalPos="10.00" arrivalPosLat="-1.20" arrivalSpeed="9.23" duration="161.00" routeLength="1018.00" waitSteps="49" timeLoss="68.06" rerouteNo="0" devices="tripinfo_mixed3.10" vType="moped" speedFactor="0.77" vaporized=""/>
    <tripinfo id="mixed1.8" depart="140.00" departLane="51o_1" departPos="2.20" departPosLat="0.20" departSpeed="0.00" departDelay="0.00" arrival="336.00" arrivalLane="2i_0" arrivalPos="488.65" arrivalPosLat="-1.20" arrivalSpeed="15.15" duration="196.00" routeLength="1601.37" waitSteps="41" timeLoss="67.37" rerouteNo="0" devices="tripinfo_mixed1.8" vType="moped" speedFactor="0.79" vaporized=""/>
    <tripinfo id="mixed3.14" depart="245.00" departLane="53o_0" departPos="2.20" departPosLat="0.25" departSpeed="0.00" departDelay="0.00" arrival="338.00" arrivalLane="54i_0" arrivalPos="10.00" arrivalPosLat="-1.20" arrivalSpeed="10.92" duration="93.00" routeLength="1018.00" waitSteps="0" timeLoss="11.86" rerouteNo="0" devices="tripinfo_mixed3.14" vType="moped" speedFactor="0.91" vaporized=""/>
    <tripinfo id="mixed1.12" depart="210.00" departLane="51o_0" departPos="5.10" departPosLat="0.65" departSpeed="0.00" departDelay="0.00" arrival="338.00" arrivalLane="2i_0" arrivalPos="488.65" arrivalPosLat="-0.70" arrivalSpeed="17.37" duration="128.00" routeLength="1598.47" waitSteps="0" timeLoss="14.63" rerouteNo="0" devices="tripinfo_mixed1.12" vType="car" speedFactor="0.90" vaporized=""/>
    <tripinfo id="mixed3.15" depart="262.00" departLane="53o_1" departPos="5.10" departPosLat="-0.05" departSpeed="0.00" departDelay="-0.50" arrival="342.00" arrivalLane="54i_0" arrivalPos="10.00" arrivalPosLat="-0.70" arrivalSpeed="10.09" duration="80.00" routeLength="1015.10" waitSteps="0" timeLoss="8.60" rerouteNo="0" devices="tripinfo_mixed3.15" vType="car" speedFactor="1.01" vaporized=""/>
</tripinfos>
