<?xml version="1.0" encoding="UTF-8"?>

<!-- generated on Saturday 19 January 2019 09:15:48 PM IST by SUMO gui Version 0.32.0
<?xml version="1.0" encoding="UTF-8"?>

<configuration xmlns:xsi="http://www.w3.org/2001/XMLSchema-instance" xsi:noNamespaceSchemaLocation="http://sumo.dlr.de/xsd/sumoConfiguration.xsd">

    <input>
        <net-file value="data/cross_2lanes.net.xml"/>
        <route-files value="data/cross.rou.xml"/>
        <additional-files value="data/cross.det.xml"/>
    </input>

    <output>
        <tripinfo-output value="tripinfo.xml"/>
    </output>

    <time>
        <begin value="0"/>
    </time>

    <processing>
        <lateral-resolution value="0.64"/>
    </processing>

    <report>
        <verbose value="true"/>
        <no-step-log value="true"/>
    </report>

    <gui_only>
        <start value="true"/>
    </gui_only>

</configuration>
-->

<tripinfos xmlns:xsi="http://www.w3.org/2001/XMLSchema-instance" xsi:noNamespaceSchemaLocation="http://sumo.dlr.de/xsd/tripinfo_file.xsd">
    <tripinfo id="6" depart="10.00" departLane="52o_0" departPos="2.30" departPosLat="0.00" departSpeed="0.00" departDelay="0.00" arrival="94.00" arrivalLane="51i_0" arrivalPos="10.00" arrivalPosLat="0.00" arrivalSpeed="12.99" duration="84.00" routeLength="1017.90" waitSteps="0" timeLoss="11.90" rerouteNo="0" devices="tripinfo_6" vType="type2" speedFactor="1.00" vaporized=""/>
    <tripinfo id="8" depart="13.00" departLane="52o_0" departPos="2.30" departPosLat="0.00" departSpeed="0.00" departDelay="3.00" arrival="95.00" arrivalLane="53i_0" arrivalPos="10.00" arrivalPosLat="0.00" arrivalSpeed="14.25" duration="82.00" routeLength="1000.20" waitSteps="0" timeLoss="11.47" rerouteNo="0" devices="tripinfo_8" vType="type2" speedFactor="1.00" vaporized=""/>
    <tripinfo id="7" depart="11.00" departLane="52o_0" departPos="2.30" departPosLat="0.00" departSpeed="0.00" departDelay="1.00" arrival="95.00" arrivalLane="54i_0" arrivalPos="10.00" arrivalPosLat="0.00" arrivalSpeed="14.83" duration="84.00" routeLength="1016.17" waitSteps="0" timeLoss="12.37" rerouteNo="0" devices="tripinfo_7" vType="type2" speedFactor="1.00" vaporized=""/>
    <tripinfo id="15" depart="20.00" departLane="54o_0" departPos="5.10" departPosLat="0.00" departSpeed="0.00" departDelay="0.00" arrival="101.00" arrivalLane="53i_0" arrivalPos="10.00" arrivalPosLat="0.00" arrivalSpeed="12.65" duration="81.00" routeLength="1015.10" waitSteps="0" timeLoss="8.63" rerouteNo="0" devices="tripinfo_15" vType="type3" speedFactor="1.00" vaporized=""/>
    <tripinfo id="4" depart="7.00" departLane="54o_0" departPos="2.30" departPosLat="0.00" departSpeed="0.00" departDelay="2.00" arrival="102.00" arrivalLane="51i_0" arrivalPos="10.00" arrivalPosLat="0.00" arrivalSpeed="13.03" duration="95.00" routeLength="1016.17" waitSteps="9" timeLoss="22.84" rerouteNo="0" devices="tripinfo_4" vType="type2" speedFactor="1.00" vaporized=""/>
    <tripinfo id="5" depart="10.00" departLane="54o_0" departPos="2.30" departPosLat="0.00" departSpeed="0.00" departDelay="0.00" arrival="102.00" arrivalLane="52i_0" arrivalPos="10.00" arrivalPosLat="0.00" arrivalSpeed="15.11" duration="92.00" routeLength="1000.20" waitSteps="7" timeLoss="20.82" rerouteNo="0" devices="tripinfo_5" vType="type2" speedFactor="1.00" vaporized=""/>
    <tripinfo id="3" depart="5.00" departLane="54o_0" departPos="2.30" departPosLat="0.00" departSpeed="0.00" departDelay="0.00" arrival="103.00" arrivalLane="53i_0" arrivalPos="10.00" arrivalPosLat="0.00" arrivalSpeed="14.16" duration="98.00" routeLength="1017.90" waitSteps="11" timeLoss="25.61" rerouteNo="0" devices="tripinfo_3" vType="type2" speedFactor="1.00" vaporized=""/>
    <tripinfo id="16" depart="23.00" departLane="54o_0" departPos="5.10" departPosLat="0.00" departSpeed="0.00" departDelay="3.00" arrival="104.00" arrivalLane="51i_0" arrivalPos="10.00" arrivalPosLat="1.00" arrivalSpeed="11.21" duration="81.00" routeLength="1013.37" waitSteps="0" timeLoss="9.08" rerouteNo="0" devices="tripinfo_16" vType="type3" speedFactor="1.00" vaporized=""/>
    <tripinfo id="12" depart="15.00" departLane="51o_0" departPos="5.10" departPosLat="0.00" departSpeed="0.00" departDelay="0.00" arrival="108.00" arrivalLane="52i_0" arrivalPos="10.00" arrivalPosLat="0.00" arrivalSpeed="10.83" duration="93.00" routeLength="1015.10" waitSteps="4" timeLoss="21.53" rerouteNo="0" devices="tripinfo_12" vType="type3" speedFactor="1.00" vaporized=""/>
    <tripinfo id="14" depart="21.00" departLane="51o_0" departPos="5.10" departPosLat="0.00" departSpeed="0.00" departDelay="6.00" arrival="109.00" arrivalLane="53i_0" arrivalPos="10.00" arrivalPosLat="0.00" arrivalSpeed="12.66" duration="88.00" routeLength="1013.37" waitSteps="3" timeLoss="16.05" rerouteNo="0" devices="tripinfo_14" vType="type3" speedFactor="1.00" vaporized=""/>
    <tripinfo id="13" depart="18.00" departLane="51o_0" departPos="5.10" departPosLat="0.00" departSpeed="0.00" departDelay="3.00" arrival="109.00" arrivalLane="54i_1" arrivalPos="10.00" arrivalPosLat="0.00" arrivalSpeed="11.54" duration="91.00" routeLength="997.40" waitSteps="5" timeLoss="20.54" rerouteNo="0" devices="tripinfo_13" vType="type3" speedFactor="1.00" vaporized=""/>
    <tripinfo id="1" depart="7.00" departLane="51o_0" departPos="2.30" departPosLat="0.00" departSpeed="0.00" departDelay="2.00" arrival="110.00" arrivalLane="54i_0" arrivalPos="10.00" arrivalPosLat="0.00" arrivalSpeed="14.63" duration="103.00" routeLength="1000.20" waitSteps="16" timeLoss="31.86" rerouteNo="0" devices="tripinfo_1" vType="type2" speedFactor="1.00" vaporized=""/>
    <tripinfo id="2" depart="8.00" departLane="51o_0" departPos="2.30" departPosLat="0.00" departSpeed="0.00" departDelay="3.00" arrival="111.00" arrivalLane="53i_0" arrivalPos="10.00" arrivalPosLat="0.00" arrivalSpeed="13.41" duration="103.00" routeLength="1016.17" waitSteps="16" timeLoss="30.95" rerouteNo="0" devices="tripinfo_2" vType="type2" speedFactor="1.00" vaporized=""/>
    <tripinfo id="0" depart="5.00" departLane="51o_0" departPos="2.30" departPosLat="0.00" departSpeed="0.00" departDelay="0.00" arrival="111.00" arrivalLane="52i_0" arrivalPos="10.00" arrivalPosLat="-0.09" arrivalSpeed="12.21" duration="106.00" routeLength="1017.90" waitSteps="19" timeLoss="33.84" rerouteNo="0" devices="tripinfo_0" vType="type2" speedFactor="1.00" vaporized=""/>
    <tripinfo id="24" depart="25.00" departLane="51o_0" departPos="5.10" departPosLat="0.00" departSpeed="0.00" departDelay="0.00" arrival="111.00" arrivalLane="52i_1" arrivalPos="10.00" arrivalPosLat="-0.80" arrivalSpeed="11.54" duration="86.00" routeLength="1015.10" waitSteps="0" timeLoss="13.96" rerouteNo="0" devices="tripinfo_24" vType="type4" speedFactor="1.00" vaporized=""/>
    <tripinfo id="25" depart="30.00" departLane="51o_0" departPos="5.10" departPosLat="0.00" departSpeed="0.00" departDelay="0.00" arrival="111.00" arrivalLane="54i_1" arrivalPos="10.00" arrivalPosLat="0.00" arrivalSpeed="12.92" duration="81.00" routeLength="997.40" waitSteps="0" timeLoss="10.47" rerouteNo="0" devices="tripinfo_25" vType="type4" speedFactor="1.00" vaporized=""/>
    <tripinfo id="10" depart="15.00" departLane="53o_0" departPos="5.10" departPosLat="0.00" departSpeed="0.00" departDelay="0.00" arrival="116.00" arrivalLane="51i_0" arrivalPos="10.00" arrivalPosLat="0.00" arrivalSpeed="12.48" duration="101.00" routeLength="997.40" waitSteps="16" timeLoss="30.52" rerouteNo="0" devices="tripinfo_10" vType="type3" speedFactor="1.00" vaporized=""/>
    <tripinfo id="11" depart="18.00" departLane="53o_0" departPos="5.10" departPosLat="0.00" departSpeed="0.00" departDelay="3.00" arrival="116.00" arrivalLane="52i_0" arrivalPos="10.00" arrivalPosLat="0.00" arrivalSpeed="12.67" duration="98.00" routeLength="1013.37" waitSteps="13" timeLoss="26.04" rerouteNo="0" devices="tripinfo_11" vType="type3" speedFactor="1.00" vaporized=""/>
    <tripinfo id="21" depart="25.00" departLane="53o_0" departPos="5.10" departPosLat="0.00" departSpeed="0.00" departDelay="0.00" arrival="116.00" arrivalLane="54i_0" arrivalPos="10.00" arrivalPosLat="0.00" arrivalSpeed="11.98" duration="91.00" routeLength="1015.10" waitSteps="4" timeLoss="18.87" rerouteNo="0" devices="tripinfo_21" vType="type4" speedFactor="1.00" vaporized=""/>
    <tripinfo id="22" depart="28.00" departLane="53o_0" departPos="5.10" departPosLat="0.00" departSpeed="0.00" departDelay="3.00" arrival="118.00" arrivalLane="51i_0" arrivalPos="10.00" arrivalPosLat="0.00" arrivalSpeed="11.32" duration="90.00" routeLength="997.40" waitSteps="4" timeLoss="19.64" rerouteNo="0" devices="tripinfo_22" vType="type4" speedFactor="1.00" vaporized=""/>
    <tripinfo id="23" depart="31.00" departLane="53o_0" departPos="5.10" departPosLat="0.00" departSpeed="0.00" departDelay="6.00" arrival="118.00" arrivalLane="52i_0" arrivalPos="10.00" arrivalPosLat="0.00" arrivalSpeed="11.63" duration="87.00" routeLength="1013.37" waitSteps="0" timeLoss="15.27" rerouteNo="0" devices="tripinfo_23" vType="type4" speedFactor="1.00" vaporized=""/>
    <tripinfo id="9" depart="10.00" departLane="53o_0" departPos="2.30" departPosLat="0.00" departSpeed="0.00" departDelay="0.00" arrival="118.00" arrivalLane="54i_0" arrivalPos="10.00" arrivalPosLat="0.00" arrivalSpeed="10.94" duration="108.00" routeLength="1017.90" waitSteps="20" timeLoss="36.06" rerouteNo="0" devices="tripinfo_9" vType="type2" speedFactor="1.00" vaporized=""/>
    <tripinfo id="30" depart="35.00" departLane="52o_0" departPos="7.20" departPosLat="0.00" departSpeed="0.00" departDelay="0.00" arrival="121.00" arrivalLane="51i_0" arrivalPos="10.00" arrivalPosLat="0.00" arrivalSpeed="11.77" duration="86.00" routeLength="1013.00" waitSteps="0" timeLoss="13.84" rerouteNo="0" devices="tripinfo_30" vType="type5" speedFactor="1.00" vaporized=""/>
    <tripinfo id="18" depart="20.00" departLane="52o_0" departPos="5.10" departPosLat="0.00" departSpeed="0.00" departDelay="0.00" arrival="124.00" arrivalLane="51i_0" arrivalPos="10.00" arrivalPosLat="0.00" arrivalSpeed="12.78" duration="104.00" routeLength="1015.10" waitSteps="17" timeLoss="32.17" rerouteNo="0" devices="tripinfo_18" vType="type3" speedFactor="1.00" vaporized=""/>
    <tripinfo id="20" depart="26.00" departLane="52o_0" departPos="5.10" departPosLat="0.00" departSpeed="0.00" departDelay="1.00" arrival="124.00" arrivalLane="53i_0" arrivalPos="10.00" arrivalPosLat="0.00" arrivalSpeed="13.10" duration="98.00" routeLength="997.40" waitSteps="12" timeLoss="27.26" rerouteNo="0" devices="tripinfo_20" vType="type4" speedFactor="1.00" vaporized=""/>
    <tripinfo id="19" depart="23.00" departLane="52o_0" departPos="5.10" departPosLat="0.00" departSpeed="0.00" departDelay="3.00" arrival="124.00" arrivalLane="54i_0" arrivalPos="10.00" arrivalPosLat="0.00" arrivalSpeed="12.54" duration="101.00" routeLength="1013.37" waitSteps="14" timeLoss="29.44" rerouteNo="0" devices="tripinfo_19" vType="type3" speedFactor="1.00" vaporized=""/>
    <tripinfo id="31" depart="40.00" departLane="52o_0" departPos="7.20" departPosLat="0.00" departSpeed="0.00" departDelay="5.00" arrival="125.00" arrivalLane="54i_1" arrivalPos="10.00" arrivalPosLat="-1.00" arrivalSpeed="12.05" duration="85.00" routeLength="1011.27" waitSteps="0" timeLoss="13.44" rerouteNo="0" devices="tripinfo_31" vType="type5" speedFactor="1.00" vaporized=""/>
    <tripinfo id="32" depart="44.00" departLane="52o_0" departPos="7.20" departPosLat="0.00" departSpeed="0.00" departDelay="9.00" arrival="126.00" arrivalLane="53i_0" arrivalPos="10.00" arrivalPosLat="0.00" arrivalSpeed="11.58" duration="82.00" routeLength="995.30" waitSteps="0" timeLoss="11.92" rerouteNo="0" devices="tripinfo_32" vType="type5" speedFactor="1.00" vaporized=""/>
    <tripinfo id="42" depart="49.00" departLane="52o_0" departPos="10.00" departPosLat="0.00" departSpeed="0.00" departDelay="4.00" arrival="132.00" arrivalLane="51i_0" arrivalPos="10.00" arrivalPosLat="0.00" arrivalSpeed="11.63" duration="83.00" routeLength="1010.20" waitSteps="0" timeLoss="11.98" rerouteNo="0" devices="tripinfo_42" vType="type6" speedFactor="1.00" vaporized=""/>
    <tripinfo id="17" depart="26.00" departLane="54o_0" departPos="5.10" departPosLat="0.00" departSpeed="0.00" departDelay="6.00" arrival="137.00" arrivalLane="52i_0" arrivalPos="10.00" arrivalPosLat="0.00" arrivalSpeed="12.65" duration="111.00" routeLength="997.40" waitSteps="26" timeLoss="40.80" rerouteNo="0" devices="tripinfo_17" vType="type3" speedFactor="1.00" vaporized=""/>
    <tripinfo id="28" depart="33.00" departLane="54o_0" departPos="5.10" departPosLat="0.00" departSpeed="0.00" departDelay="3.00" arrival="140.00" arrivalLane="51i_0" arrivalPos="10.00" arrivalPosLat="0.00" arrivalSpeed="12.33" duration="107.00" routeLength="1013.37" waitSteps="20" timeLoss="34.98" rerouteNo="0" devices="tripinfo_28" vType="type4" speedFactor="1.00" vaporized=""/>
    <tripinfo id="27" depart="30.00" departLane="54o_0" departPos="5.10" departPosLat="0.00" departSpeed="0.00" departDelay="0.00" arrival="140.00" arrivalLane="53i_0" arrivalPos="10.00" arrivalPosLat="0.00" arrivalSpeed="11.89" duration="110.00" routeLength="1015.10" waitSteps="23" timeLoss="38.08" rerouteNo="0" devices="tripinfo_27" vType="type4" speedFactor="1.00" vaporized=""/>
    <tripinfo id="29" depart="36.00" departLane="54o_0" departPos="5.10" departPosLat="0.00" departSpeed="0.00" departDelay="6.00" arrival="140.00" arrivalLane="52i_0" arrivalPos="10.00" arrivalPosLat="0.00" arrivalSpeed="11.84" duration="104.00" routeLength="997.40" waitSteps="18" timeLoss="33.45" rerouteNo="0" devices="tripinfo_29" vType="type4" speedFactor="1.00" vaporized=""/>
    <tripinfo id="40" depart="45.00" departLane="54o_0" departPos="10.00" departPosLat="0.00" departSpeed="0.00" departDelay="0.00" arrival="143.00" arrivalLane="51i_0" arrivalPos="10.00" arrivalPosLat="0.00" arrivalSpeed="11.65" duration="98.00" routeLength="1008.47" waitSteps="5" timeLoss="26.43" rerouteNo="0" devices="tripinfo_40" vType="type6" speedFactor="1.00" vaporized=""/>
    <tripinfo id="39" depart="40.00" departLane="54o_0" departPos="7.20" departPosLat="0.00" departSpeed="0.00" departDelay="0.00" arrival="145.00" arrivalLane="53i_0" arrivalPos="10.00" arrivalPosLat="0.00" arrivalSpeed="11.66" duration="105.00" routeLength="1013.00" waitSteps="11" timeLoss="33.65" rerouteNo="0" devices="tripinfo_39" vType="type5" speedFactor="1.00" vaporized=""/>
    <tripinfo id="41" depart="51.00" departLane="54o_0" departPos="10.00" departPosLat="0.00" departSpeed="0.00" departDelay="6.00" arrival="145.00" arrivalLane="52i_0" arrivalPos="10.00" arrivalPosLat="0.00" arrivalSpeed="11.58" duration="94.00" routeLength="992.50" waitSteps="2" timeLoss="23.35" rerouteNo="0" devices="tripinfo_41" vType="type6" speedFactor="1.00" vaporized=""/>
    <tripinfo id="64" depart="66.00" departLane="54o_0" departPos="2.30" departPosLat="0.00" departSpeed="0.00" departDelay="1.00" arrival="151.00" arrivalLane="51i_0" arrivalPos="10.00" arrivalPosLat="0.00" arrivalSpeed="13.54" duration="85.00" routeLength="1016.17" waitSteps="1" timeLoss="13.10" rerouteNo="0" devices="tripinfo_64" vType="type2" speedFactor="1.00" vaporized=""/>
    <tripinfo id="63" depart="65.00" departLane="54o_0" departPos="2.30" departPosLat="0.00" departSpeed="0.00" departDelay="0.00" arrival="152.00" arrivalLane="53i_0" arrivalPos="10.00" arrivalPosLat="0.00" arrivalSpeed="12.25" duration="87.00" routeLength="1017.90" waitSteps="0" timeLoss="14.79" rerouteNo="0" devices="tripinfo_63" vType="type2" speedFactor="1.00" vaporized=""/>
    <tripinfo id="26" depart="33.00" departLane="51o_0" departPos="5.10" departPosLat="0.00" departSpeed="0.00" departDelay="3.00" arrival="156.00" arrivalLane="53i_0" arrivalPos="10.00" arrivalPosLat="0.00" arrivalSpeed="12.86" duration="123.00" routeLength="1013.37" waitSteps="39" timeLoss="51.27" rerouteNo="0" devices="tripinfo_26" vType="type4" speedFactor="1.00" vaporized=""/>
    <tripinfo id="36" depart="40.00" departLane="51o_0" departPos="7.20" departPosLat="0.00" departSpeed="0.00" departDelay="0.00" arrival="157.00" arrivalLane="52i_0" arrivalPos="10.00" arrivalPosLat="0.00" arrivalSpeed="11.85" duration="117.00" routeLength="1013.00" waitSteps="24" timeLoss="45.54" rerouteNo="0" devices="tripinfo_36" vType="type5" speedFactor="1.00" vaporized=""/>
    <tripinfo id="37" depart="45.00" departLane="51o_0" departPos="7.20" departPosLat="0.00" departSpeed="0.00" departDelay="5.00" arrival="158.00" arrivalLane="54i_0" arrivalPos="10.00" arrivalPosLat="0.00" arrivalSpeed="12.20" duration="113.00" routeLength="995.30" waitSteps="21" timeLoss="42.29" rerouteNo="0" devices="tripinfo_37" vType="type5" speedFactor="1.00" vaporized=""/>
    <tripinfo id="48" depart="55.00" departLane="51o_0" departPos="10.00" departPosLat="0.00" departSpeed="0.00" departDelay="5.00" arrival="158.00" arrivalLane="52i_1" arrivalPos="10.00" arrivalPosLat="-1.00" arrivalSpeed="11.84" duration="103.00" routeLength="1010.20" waitSteps="9" timeLoss="31.49" rerouteNo="0" devices="tripinfo_48" vType="type6" speedFactor="1.00" vaporized=""/>
    <tripinfo id="38" depart="50.00" departLane="51o_0" departPos="7.20" departPosLat="0.00" departSpeed="0.00" departDelay="10.00" arrival="159.00" arrivalLane="53i_0" arrivalPos="10.00" arrivalPosLat="0.00" arrivalSpeed="11.46" duration="109.00" routeLength="1011.27" waitSteps="17" timeLoss="37.79" rerouteNo="0" devices="tripinfo_38" vType="type5" speedFactor="1.00" vaporized=""/>
    <tripinfo id="34" depart="40.00" departLane="53o_0" departPos="7.20" departPosLat="0.00" departSpeed="0.00" departDelay="5.00" arrival="163.00" arrivalLane="51i_0" arrivalPos="10.00" arrivalPosLat="0.00" arrivalSpeed="11.63" duration="123.00" routeLength="995.30" waitSteps="33" timeLoss="52.49" rerouteNo="0" devices="tripinfo_34" vType="type5" speedFactor="1.00" vaporized=""/>
    <tripinfo id="60" depart="68.00" departLane="51o_0" departPos="2.30" departPosLat="0.00" departSpeed="0.00" departDelay="3.00" arrival="166.00" arrivalLane="52i_0" arrivalPos="10.00" arrivalPosLat="-0.09" arrivalSpeed="12.59" duration="98.00" routeLength="1017.90" waitSteps="3" timeLoss="26.32" rerouteNo="0" devices="tripinfo_60" vType="type2" speedFactor="1.00" vaporized=""/>
    <tripinfo id="33" depart="35.00" departLane="53o_0" departPos="7.20" departPosLat="0.00" departSpeed="0.00" departDelay="0.00" arrival="166.00" arrivalLane="54i_0" arrivalPos="10.00" arrivalPosLat="0.00" arrivalSpeed="11.74" duration="131.00" routeLength="1013.00" waitSteps="40" timeLoss="58.47" rerouteNo="0" devices="tripinfo_33" vType="type5" speedFactor="1.00" vaporized=""/>
    <tripinfo id="35" depart="45.00" departLane="53o_0" departPos="7.20" departPosLat="0.00" departSpeed="0.00" departDelay="5.00" arrival="166.00" arrivalLane="52i_1" arrivalPos="10.00" arrivalPosLat="-0.44" arrivalSpeed="12.05" duration="121.00" routeLength="1011.27" waitSteps="28" timeLoss="49.34" rerouteNo="0" devices="tripinfo_35" vType="type5" speedFactor="1.00" vaporized=""/>
    <tripinfo id="81" depart="85.00" departLane="53o_0" departPos="5.10" departPosLat="0.00" departSpeed="0.00" departDelay="0.00" arrival="167.00" arrivalLane="54i_1" arrivalPos="10.00" arrivalPosLat="0.00" arrivalSpeed="12.36" duration="82.00" routeLength="1015.10" waitSteps="0" timeLoss="10.27" rerouteNo="0" devices="tripinfo_81" vType="type4" speedFactor="1.00" vaporized=""/>
    <tripinfo id="45" depart="50.00" departLane="53o_0" departPos="10.00" departPosLat="0.00" departSpeed="0.00" departDelay="0.00" arrival="168.00" arrivalLane="54i_0" arrivalPos="10.00" arrivalPosLat="0.00" arrivalSpeed="9.96" duration="118.00" routeLength="1010.20" waitSteps="25" timeLoss="46.80" rerouteNo="0" devices="tripinfo_45" vType="type6" speedFactor="1.00" vaporized=""/>
    <tripinfo id="46" depart="56.00" departLane="53o_0" departPos="10.00" departPosLat="0.00" departSpeed="0.00" departDelay="6.00" arrival="169.00" arrivalLane="51i_0" arrivalPos="10.00" arrivalPosLat="0.00" arrivalSpeed="11.75" duration="113.00" routeLength="992.50" waitSteps="21" timeLoss="42.72" rerouteNo="0" devices="tripinfo_46" vType="type6" speedFactor="1.00" vaporized=""/>
    <tripinfo id="47" depart="61.00" departLane="53o_0" departPos="10.00" departPosLat="0.00" departSpeed="0.00" departDelay="11.00" arrival="169.00" arrivalLane="52i_1" arrivalPos="10.00" arrivalPosLat="-1.20" arrivalSpeed="11.66" duration="108.00" routeLength="1008.47" waitSteps="13" timeLoss="36.41" rerouteNo="0" devices="tripinfo_47" vType="type6" speedFactor="1.00" vaporized=""/>
    <tripinfo id="70" depart="75.00" departLane="53o_0" departPos="5.10" departPosLat="0.00" departSpeed="0.00" departDelay="0.00" arrival="172.00" arrivalLane="51i_0" arrivalPos="10.00" arrivalPosLat="0.00" arrivalSpeed="12.92" duration="97.00" routeLength="997.40" waitSteps="7" timeLoss="26.68" rerouteNo="0" devices="tripinfo_70" vType="type3" speedFactor="1.00" vaporized=""/>
    <tripinfo id="71" depart="77.00" departLane="53o_0" departPos="5.10" departPosLat="0.00" departSpeed="0.00" departDelay="2.00" arrival="172.00" arrivalLane="52i_0" arrivalPos="10.00" arrivalPosLat="0.00" arrivalSpeed="12.46" duration="95.00" routeLength="1013.37" waitSteps="3" timeLoss="23.24" rerouteNo="0" devices="tripinfo_71" vType="type3" speedFactor="1.00" vaporized=""/>
    <tripinfo id="83" depart="91.00" departLane="53o_0" departPos="5.10" departPosLat="0.00" departSpeed="0.00" departDelay="6.00" arrival="174.00" arrivalLane="52i_0" arrivalPos="10.00" arrivalPosLat="0.00" arrivalSpeed="11.80" duration="83.00" routeLength="1013.37" waitSteps="0" timeLoss="11.39" rerouteNo="0" devices="tripinfo_83" vType="type4" speedFactor="1.00" vaporized=""/>
    <tripinfo id="69" depart="72.00" departLane="53o_0" departPos="2.30" departPosLat="0.00" departSpeed="0.00" departDelay="2.00" arrival="176.00" arrivalLane="54i_0" arrivalPos="10.00" arrivalPosLat="0.00" arrivalSpeed="11.91" duration="104.00" routeLength="1017.90" waitSteps="10" timeLoss="32.41" rerouteNo="0" devices="tripinfo_69" vType="type2" speedFactor="1.00" vaporized=""/>
    <tripinfo id="44" depart="59.00" departLane="52o_0" departPos="10.00" departPosLat="0.00" departSpeed="0.00" departDelay="14.00" arrival="180.00" arrivalLane="53i_0" arrivalPos="10.00" arrivalPosLat="0.00" arrivalSpeed="12.02" duration="121.00" routeLength="992.50" waitSteps="29" timeLoss="50.44" rerouteNo="0" devices="tripinfo_44" vType="type6" speedFactor="1.00" vaporized=""/>
    <tripinfo id="78" depart="80.00" departLane="52o_0" departPos="5.10" departPosLat="0.00" departSpeed="0.00" departDelay="0.00" arrival="181.00" arrivalLane="51i_1" arrivalPos="10.00" arrivalPosLat="0.00" arrivalSpeed="13.20" duration="101.00" routeLength="1015.10" waitSteps="14" timeLoss="29.48" rerouteNo="0" devices="tripinfo_78" vType="type3" speedFactor="1.00" vaporized=""/>
    <tripinfo id="43" depart="54.00" departLane="52o_0" departPos="10.00" departPosLat="0.00" departSpeed="0.00" departDelay="9.00" arrival="181.00" arrivalLane="54i_0" arrivalPos="10.00" arrivalPosLat="0.00" arrivalSpeed="11.10" duration="127.00" routeLength="1008.47" waitSteps="35" timeLoss="55.86" rerouteNo="0" devices="tripinfo_43" vType="type6" speedFactor="1.00" vaporized=""/>
    <tripinfo id="66" depart="70.00" departLane="52o_0" departPos="2.30" departPosLat="0.00" departSpeed="0.00" departDelay="0.00" arrival="183.00" arrivalLane="51i_0" arrivalPos="10.00" arrivalPosLat="0.00" arrivalSpeed="16.71" duration="113.00" routeLength="1017.90" waitSteps="24" timeLoss="40.59" rerouteNo="0" devices="tripinfo_66" vType="type2" speedFactor="1.00" vaporized=""/>
    <tripinfo id="90" depart="95.00" departLane="52o_0" departPos="7.20" departPosLat="0.00" departSpeed="0.00" departDelay="0.00" arrival="185.00" arrivalLane="51i_1" arrivalPos="10.00" arrivalPosLat="0.00" arrivalSpeed="11.51" duration="90.00" routeLength="1013.00" waitSteps="0" timeLoss="18.29" rerouteNo="0" devices="tripinfo_90" vType="type5" speedFactor="1.00" vaporized=""/>
    <tripinfo id="68" depart="74.00" departLane="52o_0" departPos="2.30" departPosLat="0.00" departSpeed="0.00" departDelay="4.00" arrival="188.00" arrivalLane="53i_0" arrivalPos="10.00" arrivalPosLat="0.00" arrivalSpeed="14.28" duration="114.00" routeLength="1000.20" waitSteps="21" timeLoss="42.92" rerouteNo="0" devices="tripinfo_68" vType="type2" speedFactor="1.00" vaporized=""/>
    <tripinfo id="79" depart="83.00" departLane="52o_0" departPos="5.10" departPosLat="0.00" departSpeed="0.00" departDelay="3.00" arrival="188.00" arrivalLane="54i_0" arrivalPos="10.00" arrivalPosLat="0.00" arrivalSpeed="10.57" duration="105.00" routeLength="1013.37" waitSteps="14" timeLoss="33.44" rerouteNo="0" devices="tripinfo_79" vType="type3" speedFactor="1.00" vaporized=""/>
    <tripinfo id="91" depart="99.00" departLane="52o_0" departPos="7.20" departPosLat="0.00" departSpeed="0.00" departDelay="4.00" arrival="189.00" arrivalLane="54i_1" arrivalPos="10.00" arrivalPosLat="-1.44" arrivalSpeed="12.19" duration="90.00" routeLength="1011.27" waitSteps="0" timeLoss="18.38" rerouteNo="0" devices="tripinfo_91" vType="type5" speedFactor="1.00" vaporized=""/>
    <tripinfo id="67" depart="72.00" departLane="52o_0" departPos="2.30" departPosLat="0.00" departSpeed="0.00" departDelay="2.00" arrival="191.00" arrivalLane="54i_0" arrivalPos="10.00" arrivalPosLat="0.00" arrivalSpeed="11.68" duration="119.00" routeLength="1016.17" waitSteps="23" timeLoss="47.33" rerouteNo="0" devices="tripinfo_67" vType="type2" speedFactor="1.00" vaporized=""/>
    <tripinfo id="75" depart="80.00" departLane="54o_0" departPos="5.10" departPosLat="0.00" departSpeed="0.00" departDelay="0.00" arrival="196.00" arrivalLane="53i_0" arrivalPos="10.00" arrivalPosLat="0.00" arrivalSpeed="13.13" duration="116.00" routeLength="1015.10" waitSteps="29" timeLoss="43.97" rerouteNo="0" devices="tripinfo_75" vType="type3" speedFactor="1.00" vaporized=""/>
    <tripinfo id="87" depart="90.00" departLane="54o_0" departPos="5.10" departPosLat="0.00" departSpeed="0.00" departDelay="0.00" arrival="196.00" arrivalLane="53i_1" arrivalPos="10.00" arrivalPosLat="0.00" arrivalSpeed="12.36" duration="106.00" routeLength="1015.10" waitSteps="12" timeLoss="34.12" rerouteNo="0" devices="tripinfo_87" vType="type4" speedFactor="1.00" vaporized=""/>
    <tripinfo id="76" depart="83.00" departLane="54o_0" departPos="5.10" departPosLat="0.00" departSpeed="0.00" departDelay="3.00" arrival="199.00" arrivalLane="51i_0" arrivalPos="10.00" arrivalPosLat="0.00" arrivalSpeed="11.85" duration="116.00" routeLength="1013.37" waitSteps="27" timeLoss="44.41" rerouteNo="0" devices="tripinfo_76" vType="type3" speedFactor="1.00" vaporized=""/>
    <tripinfo id="65" depart="70.00" departLane="54o_0" departPos="2.30" departPosLat="0.00" departSpeed="0.00" departDelay="0.00" arrival="200.00" arrivalLane="52i_0" arrivalPos="10.00" arrivalPosLat="0.00" arrivalSpeed="15.90" duration="130.00" routeLength="1000.20" waitSteps="36" timeLoss="59.05" rerouteNo="0" devices="tripinfo_65" vType="type2" speedFactor="1.00" vaporized=""/>
    <tripinfo id="88" depart="93.00" departLane="54o_0" departPos="5.10" departPosLat="0.00" departSpeed="0.00" departDelay="3.00" arrival="201.00" arrivalLane="51i_0" arrivalPos="10.00" arrivalPosLat="0.00" arrivalSpeed="12.77" duration="108.00" routeLength="1013.37" waitSteps="20" timeLoss="36.69" rerouteNo="0" devices="tripinfo_88" vType="type4" speedFactor="1.00" vaporized=""/>
    <tripinfo id="84" depart="85.00" departLane="51o_0" departPos="5.10" departPosLat="0.00" departSpeed="0.00" departDelay="0.00" arrival="204.00" arrivalLane="52i_0" arrivalPos="10.00" arrivalPosLat="0.00" arrivalSpeed="12.10" duration="119.00" routeLength="1015.10" waitSteps="33" timeLoss="47.30" rerouteNo="0" devices="tripinfo_84" vType="type4" speedFactor="1.00" vaporized=""/>
    <tripinfo id="72" depart="75.00" departLane="51o_0" departPos="5.10" departPosLat="0.00" departSpeed="0.00" departDelay="0.00" arrival="205.00" arrivalLane="52i_1" arrivalPos="10.00" arrivalPosLat="0.00" arrivalSpeed="12.47" duration="130.00" routeLength="1015.10" waitSteps="38" timeLoss="58.27" rerouteNo="0" devices="tripinfo_72" vType="type3" speedFactor="1.00" vaporized=""/>
    <tripinfo id="108" depart="115.00" departLane="51o_0" departPos="10.00" departPosLat="0.00" departSpeed="0.00" departDelay="5.00" arrival="206.00" arrivalLane="52i_0" arrivalPos="10.00" arrivalPosLat="0.00" arrivalSpeed="11.45" duration="91.00" routeLength="1010.20" waitSteps="0" timeLoss="19.88" rerouteNo="0" devices="tripinfo_108" vType="type6" speedFactor="1.00" vaporized=""/>
    <tripinfo id="62" depart="72.00" departLane="51o_0" departPos="2.30" departPosLat="0.00" departSpeed="0.00" departDelay="7.00" arrival="207.00" arrivalLane="53i_0" arrivalPos="10.00" arrivalPosLat="0.00" arrivalSpeed="13.24" duration="135.00" routeLength="1016.17" waitSteps="41" timeLoss="63.48" rerouteNo="0" devices="tripinfo_62" vType="type2" speedFactor="1.00" vaporized=""/>
    <tripinfo id="74" depart="81.00" departLane="51o_0" departPos="5.10" departPosLat="0.00" departSpeed="0.00" departDelay="6.00" arrival="208.00" arrivalLane="53i_0" arrivalPos="10.00" arrivalPosLat="1.20" arrivalSpeed="12.89" duration="127.00" routeLength="1013.37" waitSteps="38" timeLoss="55.03" rerouteNo="0" devices="tripinfo_74" vType="type3" speedFactor="1.00" vaporized=""/>
    <tripinfo id="49" depart="61.00" departLane="51o_0" departPos="10.00" departPosLat="0.00" departSpeed="0.00" departDelay="11.00" arrival="208.00" arrivalLane="54i_0" arrivalPos="10.00" arrivalPosLat="0.00" arrivalSpeed="11.84" duration="147.00" routeLength="992.50" waitSteps="44" timeLoss="76.46" rerouteNo="0" devices="tripinfo_49" vType="type6" speedFactor="1.00" vaporized=""/>