<?xml version="1.0" encoding="UTF-8"?>

<!-- generated on Monday 15 October 2018 09:56:31 AM IST by SUMO gui Version 0.32.0
<?xml version="1.0" encoding="UTF-8"?>

<configuration xmlns:xsi="http://www.w3.org/2001/XMLSchema-instance" xsi:noNamespaceSchemaLocation="http://sumo.dlr.de/xsd/sumoConfiguration.xsd">

    <input>
        <net-file value="data/cross_2intersections_debug.net.xml"/>
        <route-files value="data/cross_2intersections.rou.xml"/>
    </input>

    <output>
        <tripinfo-output value="tripinfo.xml"/>
    </output>

    <time>
        <begin value="0"/>
    </time>

    <report>
        <verbose value="true"/>
        <no-step-log value="true"/>
    </report>

    <traci_server>
        <remote-port value="34720"/>
    </traci_server>

</configuration>
-->

<tripinfos xmlns:xsi="http://www.w3.org/2001/XMLSchema-instance" xsi:noNamespaceSchemaLocation="http://sumo.dlr.de/xsd/tripinfo_file.xsd">
    <tripinfo id="mixed2.0" depart="0.00" departLane="52o_2" departPos="2.20" departSpeed="0.00" departDelay="0.00" arrival="139.00" arrivalLane="54i_0" arrivalPos="10.00" arrivalSpeed="8.97" duration="139.00" routeLength="1117.80" waitSteps="20" timeLoss="36.63" rerouteNo="0" devices="tripinfo_mixed2.0" vType="moped" speedFactor="0.75" vaporized=""/>
    <tripinfo id="mixed2.8" depart="28.00" departLane="52o_2" departPos="5.10" departSpeed="0.00" departDelay="0.00" arrival="152.00" arrivalLane="54i_1" arrivalPos="10.00" arrivalSpeed="14.84" duration="124.00" routeLength="1114.90" waitSteps="26" timeLoss="62.06" rerouteNo="0" devices="tripinfo_mixed2.8" vType="car" speedFactor="1.25" vaporized=""/>
    <tripinfo id="mixed2.5" depart="18.00" departLane="52o_0" departPos="5.10" departSpeed="0.00" departDelay="0.50" arrival="153.00" arrivalLane="54i_0" arrivalPos="10.00" arrivalSpeed="13.17" duration="135.00" routeLength="1114.90" waitSteps="41" timeLoss="60.04" rerouteNo="0" devices="tripinfo_mixed2.5" vType="car" speedFactor="1.03" vaporized=""/>
    <tripinfo id="mixed2.3" depart="10.00" departLane="52o_2" departPos="2.20" departSpeed="0.00" departDelay="-0.50" arrival="159.00" arrivalLane="54i_0" arrivalPos="10.00" arrivalSpeed="11.12" duration="149.00" routeLength="1117.80" waitSteps="30" timeLoss="65.76" rerouteNo="0" devices="tripinfo_mixed2.3" vType="moped" speedFactor="0.98" vaporized=""/>
    <tripinfo id="mixed2.6" depart="21.00" departLane="52o_2" departPos="2.20" departSpeed="0.00" departDelay="0.00" arrival="178.00" arrivalLane="54i_0" arrivalPos="10.00" arrivalSpeed="15.05" duration="157.00" routeLength="1117.80" waitSteps="41" timeLoss="86.84" rerouteNo="0" devices="tripinfo_mixed2.6" vType="moped" speedFactor="1.36" vaporized=""/>
    <tripinfo id="mixed2.9" depart="31.00" departLane="52o_2" departPos="5.10" departSpeed="0.00" departDelay="-0.50" arrival="202.00" arrivalLane="54i_0" arrivalPos="10.00" arrivalSpeed="10.81" duration="171.00" routeLength="1114.90" waitSteps="35" timeLoss="74.54" rerouteNo="0" devices="tripinfo_mixed2.9" vType="car" speedFactor="0.80" vaporized=""/>
    <tripinfo id="mixed2.7" depart="24.00" departLane="52o_0" departPos="2.20" departSpeed="0.00" departDelay="-0.50" arrival="241.00" arrivalLane="54i_0" arrivalPos="10.00" arrivalSpeed="9.14" duration="217.00" routeLength="1117.80" waitSteps="52" timeLoss="105.32" rerouteNo="0" devices="tripinfo_mixed2.7" vType="moped" speedFactor="0.69" vaporized=""/>
    <tripinfo id="mixed2.11" depart="39.00" departLane="52o_1" departPos="5.10" departSpeed="0.00" departDelay="0.50" arrival="246.00" arrivalLane="54i_1" arrivalPos="10.00" arrivalSpeed="13.89" duration="207.00" routeLength="1114.90" waitSteps="68" timeLoss="136.30" rerouteNo="0" devices="tripinfo_mixed2.11" vType="car" speedFactor="1.08" vaporized=""/>
    <tripinfo id="mixed2.4" depart="14.00" departLane="52o_1" departPos="2.20" departSpeed="0.00" departDelay="0.00" arrival="261.00" arrivalLane="54i_0" arrivalPos="10.00" arrivalSpeed="6.50" duration="247.00" routeLength="1117.80" waitSteps="60" timeLoss="105.08" rerouteNo="0" devices="tripinfo_mixed2.4" vType="moped" speedFactor="0.54" vaporized=""/>
    <tripinfo id="mixed2.18" depart="63.00" departLane="52o_2" departPos="5.10" departSpeed="0.00" departDelay="0.00" arrival="271.00" arrivalLane="54i_0" arrivalPos="10.00" arrivalSpeed="9.44" duration="208.00" routeLength="1114.90" waitSteps="42" timeLoss="105.38" rerouteNo="0" devices="tripinfo_mixed2.18" vType="car" speedFactor="0.75" vaporized=""/>
    <tripinfo id="mixed2.12" depart="42.00" departLane="52o_1" departPos="2.20" departSpeed="0.00" departDelay="0.00" arrival="272.00" arrivalLane="54i_1" arrivalPos="10.00" arrivalSpeed="9.08" duration="230.00" routeLength="1117.80" waitSteps="64" timeLoss="126.26" rerouteNo="0" devices="tripinfo_mixed2.12" vType="moped" speedFactor="0.74" vaporized=""/>
    <tripinfo id="mixed2.26" depart="91.00" departLane="52o_1" departPos="2.20" departSpeed="0.00" departDelay="0.00" arrival="285.00" arrivalLane="54i_0" arrivalPos="10.00" arrivalSpeed="12.65" duration="194.00" routeLength="1117.80" waitSteps="29" timeLoss="115.08" rerouteNo="0" devices="tripinfo_mixed2.26" vType="moped" speedFactor="1.08" vaporized=""/>
    <tripinfo id="mixed2.14" depart="49.00" departLane="52o_1" departPos="2.20" departSpeed="0.00" departDelay="0.00" arrival="289.00" arrivalLane="54i_0" arrivalPos="10.00" arrivalSpeed="11.97" duration="240.00" routeLength="1117.80" waitSteps="70" timeLoss="158.86" rerouteNo="0" devices="tripinfo_mixed2.14" vType="moped" speedFactor="1.04" vaporized=""/>
    <tripinfo id="mixed2.10" depart="35.00" departLane="52o_1" departPos="2.20" departSpeed="0.00" departDelay="0.00" arrival="303.00" arrivalLane="54i_0" arrivalPos="10.00" arrivalSpeed="8.88" duration="268.00" routeLength="1117.80" waitSteps="92" timeLoss="158.96" rerouteNo="0" devices="tripinfo_mixed2.10" vType="moped" speedFactor="0.71" vaporized=""/>
    <tripinfo id="mixed2.22" depart="77.00" departLane="52o_1" departPos="2.20" departSpeed="0.00" departDelay="0.00" arrival="303.00" arrivalLane="54i_1" arrivalPos="10.00" arrivalSpeed="16.66" duration="226.00" routeLength="1117.80" waitSteps="66" timeLoss="158.81" rerouteNo="0" devices="tripinfo_mixed2.22" vType="moped" speedFactor="1.62" vaporized=""/>
    <tripinfo id="mixed2.1" depart="3.00" departLane="52o_2" departPos="2.20" departSpeed="0.00" departDelay="-0.50" arrival="313.00" arrivalLane="54i_0" arrivalPos="10.00" arrivalSpeed="5.28" duration="310.00" routeLength="1117.80" waitSteps="44" timeLoss="93.48" rerouteNo="0" devices="tripinfo_mixed2.1" vType="moped" speedFactor="0.36" vaporized=""/>
    <tripinfo id="mixed2.13" depart="45.00" departLane="52o_0" departPos="2.20" departSpeed="0.00" departDelay="-0.50" arrival="313.00" arrivalLane="54i_1" arrivalPos="10.00" arrivalSpeed="14.57" duration="268.00" routeLength="1117.80" waitSteps="91" timeLoss="196.79" rerouteNo="0" devices="tripinfo_mixed2.13" vType="moped" speedFactor="1.33" vaporized=""/>
    <tripinfo id="mixed2.15" depart="52.00" departLane="52o_2" departPos="2.20" departSpeed="0.00" departDelay="-0.50" arrival="345.00" arrivalLane="54i_0" arrivalPos="10.00" arrivalSpeed="13.03" duration="293.00" routeLength="1117.80" waitSteps="106" timeLoss="215.14" rerouteNo="0" devices="tripinfo_mixed2.15" vType="moped" speedFactor="1.12" vaporized=""/>
    <tripinfo id="mixed2.17" depart="60.00" departLane="52o_1" departPos="5.10" departSpeed="0.00" departDelay="0.50" arrival="349.00" arrivalLane="54i_0" arrivalPos="10.00" arrivalSpeed="12.51" duration="289.00" routeLength="1114.90" waitSteps="109" timeLoss="213.50" rerouteNo="0" devices="tripinfo_mixed2.17" vType="car" speedFactor="1.02" vaporized=""/>
    <tripinfo id="mixed2.24" depart="84.00" departLane="52o_2" departPos="2.20" departSpeed="0.00" departDelay="0.00" arrival="387.00" arrivalLane="54i_0" arrivalPos="10.00" arrivalSpeed="11.37" duration="303.00" routeLength="1117.80" waitSteps="109" timeLoss="219.13" rerouteNo="0" devices="tripinfo_mixed2.24" vType="moped" speedFactor="0.98" vaporized=""/>
    <tripinfo id="mixed2.20" depart="70.00" departLane="52o_0" departPos="5.10" departSpeed="0.00" departDelay="0.00" arrival="405.00" arrivalLane="54i_2" arrivalPos="10.00" arrivalSpeed="15.02" duration="335.00" routeLength="1114.90" waitSteps="148" timeLoss="273.98" rerouteNo="0" devices="tripinfo_mixed2.20" vType="car" speedFactor="1.26" vaporized=""/>
    <tripinfo id="mixed2.19" depart="66.00" departLane="52o_0" departPos="5.10" departSpeed="0.00" departDelay="-0.50" arrival="408.00" arrivalLane="54i_2" arrivalPos="10.00" arrivalSpeed="12.29" duration="342.00" routeLength="1114.90" waitSteps="147" timeLoss="270.09" rerouteNo="0" devices="tripinfo_mixed2.19" vType="car" speedFactor="1.06" vaporized=""/>
    <tripinfo id="mixed2.40" depart="140.00" departLane="52o_1" departPos="2.20" departSpeed="0.00" departDelay="0.00" arrival="415.00" arrivalLane="54i_0" arrivalPos="10.00" arrivalSpeed="8.33" duration="275.00" routeLength="1117.80" waitSteps="50" timeLoss="145.56" rerouteNo="0" devices="tripinfo_mixed2.40" vType="moped" speedFactor="0.60" vaporized=""/>
    <tripinfo id="mixed2.16" depart="56.00" departLane="52o_0" departPos="2.20" departSpeed="0.00" departDelay="0.00" arrival="418.00" arrivalLane="54i_1" arrivalPos="10.00" arrivalSpeed="6.64" duration="362.00" routeLength="1117.80" waitSteps="121" timeLoss="223.81" rerouteNo="0" devices="tripinfo_mixed2.16" vType="moped" speedFactor="0.56" vaporized=""/>
    <tripinfo id="mixed2.2" depart="7.00" departLane="52o_1" departPos="2.20" departSpeed="0.00" departDelay="0.00" arrival="420.00" arrivalLane="54i_0" arrivalPos="10.00" arrivalSpeed="4.89" duration="413.00" routeLength="1117.80" waitSteps="104" timeLoss="175.57" rerouteNo="0" devices="tripinfo_mixed2.2" vType="moped" speedFactor="0.32" vaporized=""/>
    <tripinfo id="mixed2.21" depart="73.00" departLane="52o_0" departPos="5.10" departSpeed="0.00" departDelay="-0.50" arrival="427.00" arrivalLane="54i_0" arrivalPos="10.00" arrivalSpeed="10.17" duration="354.00" routeLength="1114.90" waitSteps="139" timeLoss="255.90" rerouteNo="0" devices="tripinfo_mixed2.21" vType="car" speedFactor="0.79" vaporized=""/>
    <tripinfo id="mixed2.28" depart="98.00" departLane="52o_0" departPos="2.20" departSpeed="0.00" departDelay="0.00" arrival="433.00" arrivalLane="54i_0" arrivalPos="10.00" arrivalSpeed="16.09" duration="335.00" routeLength="1117.80" waitSteps="139" timeLoss="265.53" rerouteNo="0" devices="tripinfo_mixed2.28" vType="moped" speedFactor="1.41" vaporized=""/>
    <tripinfo id="mixed2.31" depart="108.00" departLane="52o_2" departPos="2.20" departSpeed="0.00" departDelay="-0.50" arrival="442.00" arrivalLane="54i_0" arrivalPos="10.00" arrivalSpeed="14.29" duration="334.00" routeLength="1117.80" waitSteps="132" timeLoss="260.82" rerouteNo="0" devices="tripinfo_mixed2.31" vType="moped" speedFactor="1.26" vaporized=""/>
</tripinfos>
