<?xml version="1.0" encoding="UTF-8"?>

<!-- generated on Sunday 03 February 2019 03:05:10 PM IST by SUMO gui Version 0.32.0
<?xml version="1.0" encoding="UTF-8"?>

<configuration xmlns:xsi="http://www.w3.org/2001/XMLSchema-instance" xsi:noNamespaceSchemaLocation="http://sumo.dlr.de/xsd/sumoConfiguration.xsd">

    <input>
        <net-file value="data/cross_2lanes.net.xml"/>
        <route-files value="data/obsatcle_1mins.rou.xml"/>
        <additional-files value="data/cross.det.xml"/>
    </input>

    <output>
        <tripinfo-output value="tripinfo.xml"/>
    </output>

    <time>
        <begin value="0"/>
    </time>

    <processing>
        <lateral-resolution value="0.64"/>
        <waiting-time-memory value="60"/>
    </processing>

    <report>
        <verbose value="true"/>
        <no-step-log value="true"/>
    </report>

    <traci_server>
        <remote-port value="50495"/>
    </traci_server>

</configuration>
-->

<tripinfos xmlns:xsi="http://www.w3.org/2001/XMLSchema-instance" xsi:noNamespaceSchemaLocation="http://sumo.dlr.de/xsd/tripinfo_file.xsd">
    <tripinfo id="2" depart="5.00" departLane="54o_0" departPos="2.30" departPosLat="0.00" departSpeed="0.00" departDelay="0.00" arrival="126.00" arrivalLane="51i_0" arrivalPos="10.00" arrivalPosLat="0.00" arrivalSpeed="14.21" duration="121.00" routeLength="1016.17" waitSteps="35" timeLoss="49.30" rerouteNo="0" devices="tripinfo_2" vType="type2" speedFactor="1.00" vaporized=""/>
    <tripinfo id="4" depart="7.00" departLane="54o_0" departPos="2.30" departPosLat="0.00" departSpeed="0.00" departDelay="2.00" arrival="128.00" arrivalLane="51i_0" arrivalPos="10.00" arrivalPosLat="0.00" arrivalSpeed="14.51" duration="121.00" routeLength="1016.17" waitSteps="33" timeLoss="49.19" rerouteNo="0" devices="tripinfo_4" vType="type2" speedFactor="1.00" vaporized=""/>
    <tripinfo id="6" depart="10.00" departLane="54o_0" departPos="2.30" departPosLat="0.00" departSpeed="0.00" departDelay="0.00" arrival="130.00" arrivalLane="51i_0" arrivalPos="10.00" arrivalPosLat="0.00" arrivalSpeed="12.52" duration="120.00" routeLength="1016.17" waitSteps="31" timeLoss="48.28" rerouteNo="0" devices="tripinfo_6" vType="type2" speedFactor="1.00" vaporized=""/>
    <tripinfo id="10" depart="15.00" departLane="54o_0" departPos="5.10" departPosLat="0.00" departSpeed="0.00" departDelay="0.00" arrival="131.00" arrivalLane="51i_1" arrivalPos="10.00" arrivalPosLat="-0.74" arrivalSpeed="12.10" duration="116.00" routeLength="1013.37" waitSteps="27" timeLoss="44.16" rerouteNo="0" devices="tripinfo_10" vType="type3" speedFactor="1.00" vaporized=""/>
    <tripinfo id="8" depart="11.00" departLane="54o_0" departPos="2.30" departPosLat="0.00" departSpeed="0.00" departDelay="1.00" arrival="132.00" arrivalLane="51i_0" arrivalPos="10.00" arrivalPosLat="0.00" arrivalSpeed="13.80" duration="121.00" routeLength="1016.17" waitSteps="31" timeLoss="49.40" rerouteNo="0" devices="tripinfo_8" vType="type2" speedFactor="1.00" vaporized=""/>
    <tripinfo id="12" depart="18.00" departLane="54o_0" departPos="5.10" departPosLat="0.00" departSpeed="0.00" departDelay="3.00" arrival="133.00" arrivalLane="51i_0" arrivalPos="10.00" arrivalPosLat="1.00" arrivalSpeed="12.43" duration="115.00" routeLength="1013.37" waitSteps="25" timeLoss="43.29" rerouteNo="0" devices="tripinfo_12" vType="type3" speedFactor="1.00" vaporized=""/>
    <tripinfo id="14" depart="21.00" departLane="54o_0" departPos="5.10" departPosLat="0.00" departSpeed="0.00" departDelay="6.00" arrival="135.00" arrivalLane="51i_0" arrivalPos="10.00" arrivalPosLat="0.00" arrivalSpeed="12.71" duration="114.00" routeLength="1013.37" waitSteps="24" timeLoss="42.24" rerouteNo="0" devices="tripinfo_14" vType="type3" speedFactor="1.00" vaporized=""/>
    <tripinfo id="16" depart="23.00" departLane="54o_0" departPos="5.10" departPosLat="0.00" departSpeed="0.00" departDelay="3.00" arrival="136.00" arrivalLane="51i_1" arrivalPos="10.00" arrivalPosLat="-0.74" arrivalSpeed="11.43" duration="113.00" routeLength="1013.37" waitSteps="22" timeLoss="41.62" rerouteNo="0" devices="tripinfo_16" vType="type3" speedFactor="1.00" vaporized=""/>
    <tripinfo id="20" depart="29.00" departLane="54o_0" departPos="5.10" departPosLat="0.00" departSpeed="0.00" departDelay="4.00" arrival="137.00" arrivalLane="51i_0" arrivalPos="10.00" arrivalPosLat="0.00" arrivalSpeed="12.95" duration="108.00" routeLength="1013.37" waitSteps="21" timeLoss="38.63" rerouteNo="0" devices="tripinfo_20" vType="type4" speedFactor="1.00" vaporized=""/>
    <tripinfo id="3" depart="8.00" departLane="51o_0" departPos="2.30" departPosLat="0.00" departSpeed="0.00" departDelay="3.00" arrival="142.00" arrivalLane="52i_1" arrivalPos="10.00" arrivalPosLat="0.00" arrivalSpeed="13.94" duration="134.00" routeLength="1017.90" waitSteps="47" timeLoss="62.10" rerouteNo="0" devices="tripinfo_3" vType="type2" speedFactor="1.00" vaporized=""/>
    <tripinfo id="5" depart="10.00" departLane="51o_0" departPos="2.30" departPosLat="0.00" departSpeed="0.00" departDelay="0.00" arrival="142.00" arrivalLane="52i_0" arrivalPos="10.00" arrivalPosLat="1.41" arrivalSpeed="14.15" duration="132.00" routeLength="1017.90" waitSteps="46" timeLoss="60.18" rerouteNo="0" devices="tripinfo_5" vType="type2" speedFactor="1.00" vaporized=""/>
    <tripinfo id="9" depart="14.00" departLane="51o_0" departPos="2.30" departPosLat="0.00" departSpeed="0.00" departDelay="4.00" arrival="142.00" arrivalLane="52i_2" arrivalPos="10.00" arrivalPosLat="0.00" arrivalSpeed="11.08" duration="128.00" routeLength="1017.90" waitSteps="38" timeLoss="56.37" rerouteNo="0" devices="tripinfo_9" vType="type2" speedFactor="1.00" vaporized=""/>
    <tripinfo id="1" depart="7.00" departLane="51o_0" departPos="2.30" departPosLat="0.00" departSpeed="0.00" departDelay="2.00" arrival="143.00" arrivalLane="52i_0" arrivalPos="10.00" arrivalPosLat="0.00" arrivalSpeed="15.04" duration="136.00" routeLength="1017.90" waitSteps="47" timeLoss="63.86" rerouteNo="0" devices="tripinfo_1" vType="type2" speedFactor="1.00" vaporized=""/>
    <tripinfo id="29" depart="43.00" departLane="51o_0" departPos="5.10" departPosLat="0.00" departSpeed="0.00" departDelay="13.00" arrival="144.00" arrivalLane="52i_1" arrivalPos="10.00" arrivalPosLat="0.54" arrivalSpeed="13.01" duration="101.00" routeLength="1015.10" waitSteps="10" timeLoss="29.59" rerouteNo="0" devices="tripinfo_29" vType="type4" speedFactor="1.00" vaporized=""/>
    <tripinfo id="7" depart="12.00" departLane="51o_0" departPos="2.30" departPosLat="0.00" departSpeed="0.00" departDelay="2.00" arrival="144.00" arrivalLane="52i_0" arrivalPos="10.00" arrivalPosLat="1.41" arrivalSpeed="14.44" duration="132.00" routeLength="1017.90" waitSteps="43" timeLoss="60.10" rerouteNo="0" devices="tripinfo_7" vType="type2" speedFactor="1.00" vaporized=""/>
    <tripinfo id="31" depart="46.00" departLane="51o_0" departPos="7.20" departPosLat="0.00" departSpeed="0.00" departDelay="11.00" arrival="145.00" arrivalLane="52i_2" arrivalPos="10.00" arrivalPosLat="0.00" arrivalSpeed="11.34" duration="99.00" routeLength="1013.00" waitSteps="3" timeLoss="27.27" rerouteNo="0" devices="tripinfo_31" vType="type5" speedFactor="1.00" vaporized=""/>
    <tripinfo id="13" depart="19.00" departLane="51o_0" departPos="5.10" departPosLat="0.00" departSpeed="0.00" departDelay="4.00" arrival="146.00" arrivalLane="52i_1" arrivalPos="10.00" arrivalPosLat="0.00" arrivalSpeed="12.26" duration="127.00" routeLength="1015.10" waitSteps="34" timeLoss="55.61" rerouteNo="0" devices="tripinfo_13" vType="type3" speedFactor="1.00" vaporized=""/>
    <tripinfo id="11" depart="16.00" departLane="51o_0" departPos="5.10" departPosLat="0.00" departSpeed="0.00" departDelay="1.00" arrival="146.00" arrivalLane="52i_0" arrivalPos="10.00" arrivalPosLat="0.00" arrivalSpeed="7.84" duration="130.00" routeLength="1015.10" waitSteps="40" timeLoss="58.26" rerouteNo="0" devices="tripinfo_11" vType="type3" speedFactor="1.00" vaporized=""/>
    <tripinfo id="15" depart="22.00" departLane="51o_0" departPos="5.10" departPosLat="0.00" departSpeed="0.00" departDelay="2.00" arrival="147.00" arrivalLane="52i_2" arrivalPos="10.00" arrivalPosLat="0.00" arrivalSpeed="12.42" duration="125.00" routeLength="1015.10" waitSteps="27" timeLoss="53.37" rerouteNo="0" devices="tripinfo_15" vType="type3" speedFactor="1.00" vaporized=""/>
    <tripinfo id="17" depart="25.00" departLane="51o_0" departPos="5.10" departPosLat="0.00" departSpeed="0.00" departDelay="5.00" arrival="148.00" arrivalLane="52i_1" arrivalPos="10.00" arrivalPosLat="-0.74" arrivalSpeed="11.90" duration="123.00" routeLength="1015.10" waitSteps="22" timeLoss="51.52" rerouteNo="0" devices="tripinfo_17" vType="type3" speedFactor="1.00" vaporized=""/>
    <tripinfo id="23" depart="34.00" departLane="51o_0" departPos="5.10" departPosLat="0.00" departSpeed="0.00" departDelay="9.00" arrival="148.00" arrivalLane="52i_0" arrivalPos="10.00" arrivalPosLat="0.00" arrivalSpeed="10.31" duration="114.00" routeLength="1015.10" waitSteps="17" timeLoss="42.30" rerouteNo="0" devices="tripinfo_23" vType="type4" speedFactor="1.00" vaporized=""/>
    <tripinfo id="19" depart="28.00" departLane="51o_0" departPos="5.10" departPosLat="0.00" departSpeed="0.00" departDelay="8.00" arrival="149.00" arrivalLane="52i_2" arrivalPos="10.00" arrivalPosLat="-1.38" arrivalSpeed="12.39" duration="121.00" routeLength="1015.10" waitSteps="19" timeLoss="49.29" rerouteNo="0" devices="tripinfo_19" vType="type3" speedFactor="1.00" vaporized=""/>
    <tripinfo id="25" depart="37.00" departLane="51o_0" departPos="5.10" departPosLat="0.00" departSpeed="0.00" departDelay="7.00" arrival="150.00" arrivalLane="52i_0" arrivalPos="10.00" arrivalPosLat="0.00" arrivalSpeed="12.76" duration="113.00" routeLength="1015.10" waitSteps="14" timeLoss="41.11" rerouteNo="0" devices="tripinfo_25" vType="type4" speedFactor="1.00" vaporized=""/>
    <tripinfo id="27" depart="40.00" departLane="51o_0" departPos="5.10" departPosLat="0.00" departSpeed="0.00" departDelay="10.00" arrival="150.00" arrivalLane="52i_2" arrivalPos="10.00" arrivalPosLat="0.58" arrivalSpeed="12.62" duration="110.00" routeLength="1015.10" waitSteps="6" timeLoss="38.12" rerouteNo="0" devices="tripinfo_27" vType="type4" speedFactor="1.00" vaporized=""/>
    <tripinfo id="21" depart="31.00" departLane="51o_0" departPos="5.10" departPosLat="0.00" departSpeed="0.00" departDelay="6.00" arrival="150.00" arrivalLane="52i_1" arrivalPos="10.00" arrivalPosLat="-0.74" arrivalSpeed="10.17" duration="119.00" routeLength="1015.10" waitSteps="24" timeLoss="47.18" rerouteNo="0" devices="tripinfo_21" vType="type4" speedFactor="1.00" vaporized=""/>
    <tripinfo id="33" depart="50.00" departLane="51o_0" departPos="7.20" departPosLat="0.00" departSpeed="0.00" departDelay="15.00" arrival="152.00" arrivalLane="52i_0" arrivalPos="10.00" arrivalPosLat="0.00" arrivalSpeed="9.48" duration="102.00" routeLength="1013.00" waitSteps="3" timeLoss="30.71" rerouteNo="0" devices="tripinfo_33" vType="type5" speedFactor="1.00" vaporized=""/>
    <tripinfo id="0" depart="5.00" departLane="51o_0" departPos="2.30" departPosLat="0.00" departSpeed="0.00" departDelay="0.00" arrival="154.00" arrivalLane="52i_1" arrivalPos="10.00" arrivalPosLat="0.00" arrivalSpeed="12.35" duration="149.00" routeLength="1017.90" waitSteps="0" timeLoss="25.60" rerouteNo="0" devices="tripinfo_0" vType="type2" speedFactor="1.00" vaporized=""/>
    <tripinfo id="35" depart="54.00" departLane="51o_0" departPos="7.20" departPosLat="0.00" departSpeed="0.00" departDelay="14.00" arrival="154.00" arrivalLane="52i_0" arrivalPos="10.00" arrivalPosLat="0.00" arrivalSpeed="10.89" duration="100.00" routeLength="1013.00" waitSteps="1" timeLoss="28.73" rerouteNo="0" devices="tripinfo_35" vType="type5" speedFactor="1.00" vaporized=""/>
    <tripinfo id="37" depart="59.00" departLane="51o_0" departPos="7.20" departPosLat="0.00" departSpeed="0.00" departDelay="19.00" arrival="154.00" arrivalLane="52i_2" arrivalPos="10.00" arrivalPosLat="0.00" arrivalSpeed="11.74" duration="95.00" routeLength="1013.00" waitSteps="0" timeLoss="23.26" rerouteNo="0" devices="tripinfo_37" vType="type5" speedFactor="1.00" vaporized=""/>
    <tripinfo id="39" depart="63.00" departLane="51o_0" departPos="7.20" departPosLat="0.00" departSpeed="0.00" departDelay="23.00" arrival="156.00" arrivalLane="52i_1" arrivalPos="10.00" arrivalPosLat="0.00" arrivalSpeed="12.03" duration="93.00" routeLength="1013.00" waitSteps="0" timeLoss="21.45" rerouteNo="0" devices="tripinfo_39" vType="type5" speedFactor="1.00" vaporized=""/>
    <tripinfo id="41" depart="69.00" departLane="51o_0" departPos="10.00" departPosLat="0.00" departSpeed="0.00" departDelay="24.00" arrival="157.00" arrivalLane="52i_0" arrivalPos="10.00" arrivalPosLat="0.00" arrivalSpeed="11.66" duration="88.00" routeLength="1010.20" waitSteps="0" timeLoss="16.08" rerouteNo="0" devices="tripinfo_41" vType="type6" speedFactor="1.00" vaporized=""/>
    <tripinfo id="43" depart="75.00" departLane="51o_0" departPos="10.00" departPosLat="0.00" departSpeed="0.00" departDelay="30.00" arrival="159.00" arrivalLane="52i_0" arrivalPos="10.00" arrivalPosLat="0.00" arrivalSpeed="10.82" duration="84.00" routeLength="1010.20" waitSteps="0" timeLoss="12.52" rerouteNo="0" devices="tripinfo_43" vType="type6" speedFactor="1.00" vaporized=""/>
    <tripinfo id="45" depart="81.00" departLane="51o_0" departPos="10.00" departPosLat="0.00" departSpeed="0.00" departDelay="31.00" arrival="165.00" arrivalLane="52i_0" arrivalPos="10.00" arrivalPosLat="0.00" arrivalSpeed="11.24" duration="84.00" routeLength="1010.20" waitSteps="0" timeLoss="12.50" rerouteNo="0" devices="tripinfo_45" vType="type6" speedFactor="1.00" vaporized=""/>
    <tripinfo id="18" depart="26.00" departLane="54o_0" departPos="5.10" departPosLat="0.00" departSpeed="0.00" departDelay="6.00" arrival="251.00" arrivalLane="51i_0" arrivalPos="10.00" arrivalPosLat="0.00" arrivalSpeed="11.41" duration="225.00" routeLength="1013.37" waitSteps="133" timeLoss="153.32" rerouteNo="0" devices="tripinfo_18" vType="type3" speedFactor="1.00" vaporized=""/>
    <tripinfo id="22" depart="32.00" departLane="54o_0" departPos="5.10" departPosLat="0.00" departSpeed="0.00" departDelay="7.00" arrival="254.00" arrivalLane="51i_0" arrivalPos="10.00" arrivalPosLat="0.00" arrivalSpeed="12.34" duration="222.00" routeLength="1013.37" waitSteps="125" timeLoss="150.01" rerouteNo="0" devices="tripinfo_22" vType="type4" speedFactor="1.00" vaporized=""/>
    <tripinfo id="24" depart="35.00" departLane="54o_0" departPos="5.10" departPosLat="0.00" departSpeed="0.00" departDelay="10.00" arrival="256.00" arrivalLane="51i_0" arrivalPos="10.00" arrivalPosLat="0.00" arrivalSpeed="11.01" duration="221.00" routeLength="1013.37" waitSteps="122" timeLoss="149.46" rerouteNo="0" devices="tripinfo_24" vType="type4" speedFactor="1.00" vaporized=""/>
    <tripinfo id="26" depart="38.00" departLane="54o_0" departPos="5.10" departPosLat="0.00" departSpeed="0.00" departDelay="8.00" arrival="258.00" arrivalLane="51i_1" arrivalPos="10.00" arrivalPosLat="-1.20" arrivalSpeed="12.55" duration="220.00" routeLength="1013.37" waitSteps="121" timeLoss="148.32" rerouteNo="0" devices="tripinfo_26" vType="type4" speedFactor="1.00" vaporized=""/>
    <tripinfo id="28" depart="41.00" departLane="54o_0" departPos="5.10" departPosLat="0.00" departSpeed="0.00" departDelay="11.00" arrival="260.00" arrivalLane="51i_0" arrivalPos="10.00" arrivalPosLat="0.00" arrivalSpeed="12.07" duration="219.00" routeLength="1013.37" waitSteps="120" timeLoss="146.97" rerouteNo="0" devices="tripinfo_28" vType="type4" speedFactor="1.00" vaporized=""/>
    <tripinfo id="30" depart="44.00" departLane="54o_0" departPos="7.20" departPosLat="0.00" departSpeed="0.00" departDelay="9.00" arrival="262.00" arrivalLane="51i_0" arrivalPos="10.00" arrivalPosLat="0.00" arrivalSpeed="10.81" duration="218.00" routeLength="1011.27" waitSteps="110" timeLoss="146.56" rerouteNo="0" devices="tripinfo_30" vType="type5" speedFactor="1.00" vaporized=""/>
    <tripinfo id="61" depart="109.00" departLane="51o_0" departPos="2.30" departPosLat="0.00" departSpeed="0.00" departDelay="44.00" arrival="271.00" arrivalLane="52i_0" arrivalPos="10.00" arrivalPosLat="0.00" arrivalSpeed="13.70" duration="162.00" routeLength="1017.90" waitSteps="73" timeLoss="90.06" rerouteNo="0" devices="tripinfo_61" vType="type2" speedFactor="1.00" vaporized=""/>
    <tripinfo id="63" depart="112.00" departLane="51o_0" departPos="2.30" departPosLat="0.00" departSpeed="0.00" departDelay="47.00" arrival="271.00" arrivalLane="52i_1" arrivalPos="10.00" arrivalPosLat="0.00" arrivalSpeed="14.90" duration="159.00" routeLength="1017.90" waitSteps="70" timeLoss="86.37" rerouteNo="0" devices="tripinfo_63" vType="type2" speedFactor="1.00" vaporized=""/>
    <tripinfo id="65" depart="114.00" departLane="51o_0" departPos="2.30" departPosLat="0.00" departSpeed="0.00" departDelay="44.00" arrival="272.00" arrivalLane="52i_2" arrivalPos="10.00" arrivalPosLat="0.00" arrivalSpeed="14.00" duration="158.00" routeLength="1017.90" waitSteps="67" timeLoss="86.24" rerouteNo="0" devices="tripinfo_65" vType="type2" speedFactor="1.00" vaporized=""/>
    <tripinfo id="47" depart="87.00" departLane="51o_0" departPos="10.00" departPosLat="0.00" departSpeed="0.00" departDelay="37.00" arrival="273.00" arrivalLane="52i_0" arrivalPos="10.00" arrivalPosLat="0.00" arrivalSpeed="11.52" duration="186.00" routeLength="1010.20" waitSteps="88" timeLoss="114.97" rerouteNo="0" devices="tripinfo_47" vType="type6" speedFactor="1.00" vaporized=""/>
    <tripinfo id="49" depart="93.00" departLane="51o_0" departPos="10.00" departPosLat="0.00" departSpeed="0.00" departDelay="43.00" arrival="273.00" arrivalLane="52i_1" arrivalPos="10.00" arrivalPosLat="0.00" arrivalSpeed="9.87" duration="180.00" routeLength="1010.20" waitSteps="83" timeLoss="108.95" rerouteNo="0" devices="tripinfo_49" vType="type6" speedFactor="1.00" vaporized=""/>
    <tripinfo id="69" depart="120.00" departLane="51o_0" departPos="2.30" departPosLat="0.00" departSpeed="0.00" departDelay="50.00" arrival="275.00" arrivalLane="52i_2" arrivalPos="10.00" arrivalPosLat="1.15" arrivalSpeed="14.55" duration="155.00" routeLength="1017.90" waitSteps="61" timeLoss="82.90" rerouteNo="0" devices="tripinfo_69" vType="type2" speedFactor="1.00" vaporized=""/>
    <tripinfo id="67" depart="118.00" departLane="51o_0" departPos="2.30" departPosLat="0.00" departSpeed="0.00" departDelay="48.00" arrival="275.00" arrivalLane="52i_1" arrivalPos="10.00" arrivalPosLat="1.56" arrivalSpeed="13.41" duration="157.00" routeLength="1017.90" waitSteps="64" timeLoss="84.66" rerouteNo="0" devices="tripinfo_67" vType="type2" speedFactor="1.00" vaporized=""/>
    <tripinfo id="75" depart="128.00" departLane="51o_0" departPos="5.10" departPosLat="0.00" departSpeed="0.00" departDelay="48.00" arrival="276.00" arrivalLane="52i_0" arrivalPos="10.00" arrivalPosLat="-0.54" arrivalSpeed="12.55" duration="148.00" routeLength="1015.10" waitSteps="53" timeLoss="76.14" rerouteNo="0" devices="tripinfo_75" vType="type3" speedFactor="1.00" vaporized=""/>
    <tripinfo id="71" depart="122.00" departLane="51o_0" departPos="5.10" departPosLat="0.00" departSpeed="0.00" departDelay="47.00" arrival="276.00" arrivalLane="52i_1" arrivalPos="10.00" arrivalPosLat="-0.74" arrivalSpeed="12.49" duration="154.00" routeLength="1015.10" waitSteps="57" timeLoss="82.01" rerouteNo="0" devices="tripinfo_71" vType="type3" speedFactor="1.00" vaporized=""/>
    <tripinfo id="79" depart="134.00" departLane="51o_0" departPos="5.10" departPosLat="0.00" departSpeed="0.00" departDelay="54.00" arrival="278.00" arrivalLane="52i_2" arrivalPos="10.00" arrivalPosLat="-1.38" arrivalSpeed="12.45" duration="144.00" routeLength="1015.10" waitSteps="50" timeLoss="72.47" rerouteNo="0" devices="tripinfo_79" vType="type3" speedFactor="1.00" vaporized=""/>
    <tripinfo id="77" depart="131.00" departLane="51o_0" departPos="5.10" departPosLat="0.00" departSpeed="0.00" departDelay="51.00" arrival="278.00" arrivalLane="52i_0" arrivalPos="10.00" arrivalPosLat="-0.54" arrivalSpeed="11.81" duration="147.00" routeLength="1015.10" waitSteps="52" timeLoss="75.38" rerouteNo="0" devices="tripinfo_77" vType="type3" speedFactor="1.00" vaporized=""/>
    <tripinfo id="73" depart="125.00" departLane="51o_0" departPos="5.10" departPosLat="0.00" departSpeed="0.00" departDelay="50.00" arrival="278.00" arrivalLane="52i_1" arrivalPos="10.00" arrivalPosLat="-0.74" arrivalSpeed="11.78" duration="153.00" routeLength="1015.10" waitSteps="55" timeLoss="81.24" rerouteNo="0" devices="tripinfo_73" vType="type3" speedFactor="1.00" vaporized=""/>
    <tripinfo id="93" depart="156.00" departLane="51o_0" departPos="7.20" departPosLat="0.00" departSpeed="0.00" departDelay="61.00" arrival="280.00" arrivalLane="52i_0" arrivalPos="10.00" arrivalPosLat="0.00" arrivalSpeed="10.65" duration="124.00" routeLength="1013.00" waitSteps="21" timeLoss="52.68" rerouteNo="0" devices="tripinfo_93" vType="type5" speedFactor="1.00" vaporized=""/>
    <tripinfo id="91" depart="152.00" departLane="51o_0" departPos="7.20" departPosLat="0.00" departSpeed="0.00" departDelay="57.00" arrival="280.00" arrivalLane="52i_1" arrivalPos="10.00" arrivalPosLat="0.00" arrivalSpeed="11.20" duration="128.00" routeLength="1013.00" waitSteps="32" timeLoss="56.51" rerouteNo="0" devices="tripinfo_91" vType="type5" speedFactor="1.00" vaporized=""/>
    <tripinfo id="83" depart="140.00" departLane="51o_0" departPos="5.10" departPosLat="0.00" departSpeed="0.00" departDelay="55.00" arrival="283.00" arrivalLane="52i_0" arrivalPos="10.00" arrivalPosLat="0.00" arrivalSpeed="13.14" duration="143.00" routeLength="1015.10" waitSteps="41" timeLoss="71.08" rerouteNo="0" devices="tripinfo_83" vType="type4" speedFactor="1.00" vaporized=""/>
    <tripinfo id="81" depart="137.00" departLane="51o_0" departPos="5.10" departPosLat="0.00" departSpeed="0.00" departDelay="52.00" arrival="306.00" arrivalLane="52i_0" arrivalPos="10.00" arrivalPosLat="0.00" arrivalSpeed="12.44" duration="169.00" routeLength="1015.10" waitSteps="44" timeLoss="97.67" rerouteNo="0" devices="tripinfo_81" vType="type4" speedFactor="1.00" vaporized=""/>
    <tripinfo id="51" depart="96.00" departLane="51o_0" departPos="1.70" departPosLat="0.00" departSpeed="0.00" departDelay="41.00" arrival="321.00" arrivalLane="52i_0" arrivalPos="10.00" arrivalPosLat="0.00" arrivalSpeed="5.09" duration="225.00" routeLength="1018.50" waitSteps="23" timeLoss="41.10" rerouteNo="0" devices="tripinfo_51" vType="type1" speedFactor="1.00" vaporized=""/>
    <tripinfo id="53" depart="98.00" departLane="51o_0" departPos="1.70" departPosLat="0.00" departSpeed="0.00" departDelay="43.00" arrival="322.00" arrivalLane="52i_0" arrivalPos="10.00" arrivalPosLat="1.29" arrivalSpeed="5.05" duration="224.00" routeLength="1018.50" waitSteps="22" timeLoss="40.56" rerouteNo="0" devices="tripinfo_53" vType="type1" speedFactor="1.00" vaporized=""/>
    <tripinfo id="55" depart="100.00" departLane="51o_0" departPos="1.70" departPosLat="0.00" departSpeed="0.00" departDelay="40.00" arrival="323.00" arrivalLane="52i_0" arrivalPos="10.00" arrivalPosLat="0.00" arrivalSpeed="5.50" duration="223.00" routeLength="1018.50" waitSteps="22" timeLoss="39.53" rerouteNo="0" devices="tripinfo_55" vType="type1" speedFactor="1.00" vaporized=""/>
    <tripinfo id="59" depart="106.00" departLane="51o_0" departPos="1.70" departPosLat="0.00" departSpeed="0.00" departDelay="46.00" arrival="325.00" arrivalLane="52i_1" arrivalPos="10.00" arrivalPosLat="0.00" arrivalSpeed="5.55" duration="219.00" routeLength="1018.50" waitSteps="18" timeLoss="35.51" rerouteNo="0" devices="tripinfo_59" vType="type1" speedFactor="1.00" vaporized=""/>
    <tripinfo id="57" depart="103.00" departLane="51o_0" departPos="1.70" departPosLat="0.00" departSpeed="0.00" departDelay="43.00" arrival="325.00" arrivalLane="52i_0" arrivalPos="10.00" arrivalPosLat="0.00" arrivalSpeed="5.21" duration="222.00" routeLength="1018.50" waitSteps="18" timeLoss="38.19" rerouteNo="0" devices="tripinfo_57" vType="type1" speedFactor="1.00" vaporized=""/>
    <tripinfo id="32" depart="49.00" departLane="54o_0" departPos="7.20" departPosLat="0.00" departSpeed="0.00" departDelay="14.00" arrival="349.00" arrivalLane="51i_0" arrivalPos="10.00" arrivalPosLat="0.00" arrivalSpeed="11.55" duration="300.00" routeLength="1011.27" waitSteps="186" timeLoss="228.39" rerouteNo="0" devices="tripinfo_32" vType="type5" speedFactor="1.00" vaporized=""/>
    <tripinfo id="34" depart="54.00" departLane="54o_0" departPos="7.20" departPosLat="0.00" departSpeed="0.00" departDelay="19.00" arrival="360.00" arrivalLane="51i_0" arrivalPos="10.00" arrivalPosLat="0.00" arrivalSpeed="12.16" duration="306.00" routeLength="1011.27" waitSteps="182" timeLoss="235.00" rerouteNo="0" devices="tripinfo_34" vType="type5" speedFactor="1.00" vaporized=""/>
    <tripinfo id="36" depart="58.00" departLane="54o_0" departPos="7.20" departPosLat="0.00" departSpeed="0.00" departDelay="18.00" arrival="363.00" arrivalLane="51i_0" arrivalPos="10.00" arrivalPosLat="0.00" arrivalSpeed="11.66" duration="305.00" routeLength="1011.27" waitSteps="179" timeLoss="233.22" rerouteNo="0" devices="tripinfo_36" vType="type5" speedFactor="1.00" vaporized=""/>
    <tripinfo id="38" depart="63.00" departLane="54o_0" departPos="7.20" departPosLat="0.00" departSpeed="0.00" departDelay="23.00" arrival="365.00" arrivalLane="51i_0" arrivalPos="10.00" arrivalPosLat="0.00" arrivalSpeed="9.66" duration="302.00" routeLength="1011.27" waitSteps="178" timeLoss="230.84" rerouteNo="0" devices="tripinfo_38" vType="type5" speedFactor="1.00" vaporized=""/>
    <tripinfo id="40" depart="68.00" departLane="54o_0" departPos="10.00" departPosLat="0.00" departSpeed="0.00" departDelay="23.00" arrival="367.00" arrivalLane="51i_0" arrivalPos="10.00" arrivalPosLat="1.00" arrivalSpeed="9.77" duration="299.00" routeLength="1008.47" waitSteps="177" timeLoss="228.08" rerouteNo="0" devices="tripinfo_40" vType="type6" speedFactor="1.00" vaporized=""/>
    <tripinfo id="42" depart="74.00" departLane="54o_0" departPos="10.00" departPosLat="0.00" departSpeed="0.00" departDelay="29.00" arrival="370.00" arrivalLane="51i_0" arrivalPos="10.00" arrivalPosLat="0.00" arrivalSpeed="11.19" duration="296.00" routeLength="1008.47" waitSteps="176" timeLoss="224.48" rerouteNo="0" devices="tripinfo_42" vType="type6" speedFactor="1.00" vaporized=""/>
    <tripinfo id="44" depart="79.00" departLane="54o_0" departPos="10.00" departPosLat="0.00" departSpeed="0.00" departDelay="34.00" arrival="372.00" arrivalLane="51i_0" arrivalPos="10.00" arrivalPosLat="0.00" arrivalSpeed="11.85" duration="293.00" routeLength="1008.47" waitSteps="176" timeLoss="222.08" rerouteNo="0" devices="tripinfo_44" vType="type6" speedFactor="1.00" vaporized=""/>
    <tripinfo id="46" depart="85.00" departLane="54o_0" departPos="10.00" departPosLat="0.00" departSpeed="0.00" departDelay="35.00" arrival="375.00" arrivalLane="51i_0" arrivalPos="10.00" arrivalPosLat="0.00" arrivalSpeed="12.18" duration="290.00" routeLength="1008.47" waitSteps="173" timeLoss="218.65" rerouteNo="0" devices="tripinfo_46" vType="type6" speedFactor="1.00" vaporized=""/>
    <tripinfo id="48" depart="91.00" departLane="54o_0" departPos="10.00" departPosLat="0.00" departSpeed="0.00" departDelay="41.00" arrival="377.00" arrivalLane="51i_0" arrivalPos="10.00" arrivalPosLat="0.00" arrivalSpeed="11.81" duration="286.00" routeLength="1008.47" waitSteps="167" timeLoss="214.74" rerouteNo="0" devices="tripinfo_48" vType="type6" speedFactor="1.00" vaporized=""/>
    <tripinfo id="60" depart="107.00" departLane="54o_0" departPos="2.30" departPosLat="0.00" departSpeed="0.00" departDelay="42.00" arrival="385.00" arrivalLane="51i_0" arrivalPos="10.00" arrivalPosLat="0.00" arrivalSpeed="12.28" duration="278.00" routeLength="1016.17" waitSteps="157" timeLoss="206.05" rerouteNo="0" devices="tripinfo_60" vType="type2" speedFactor="1.00" vaporized=""/>
    <tripinfo id="64" depart="111.00" departLane="54o_0" departPos="2.30" departPosLat="0.00" departSpeed="0.00" departDelay="46.00" arrival="387.00" arrivalLane="51i_0" arrivalPos="10.00" arrivalPosLat="0.00" arrivalSpeed="15.83" duration="276.00" routeLength="1016.17" waitSteps="154" timeLoss="203.70" rerouteNo="0" devices="tripinfo_64" vType="type2" speedFactor="1.00" vaporized=""/>
    <tripinfo id="126" depart="211.00" departLane="54o_0" departPos="2.30" departPosLat="0.00" departSpeed="0.00" departDelay="81.00" arrival="389.00" arrivalLane="51i_0" arrivalPos="10.00" arrivalPosLat="1.41" arrivalSpeed="14.45" duration="178.00" routeLength="1016.17" waitSteps="63" timeLoss="105.81" rerouteNo="0" devices="tripinfo_126" vType="type2" speedFactor="1.00" vaporized=""/>
    <tripinfo id="130" depart="214.00" departLane="54o_0" departPos="5.10" departPosLat="0.00" departSpeed="0.00" departDelay="79.00" arrival="394.00" arrivalLane="51i_0" arrivalPos="10.00" arrivalPosLat="0.00" arrivalSpeed="12.46" duration="180.00" routeLength="1013.37" waitSteps="70" timeLoss="108.19" rerouteNo="0" devices="tripinfo_130" vType="type3" speedFactor="1.00" vaporized=""/>
    <tripinfo id="62" depart="109.00" departLane="54o_0" departPos="2.30" departPosLat="0.00" departSpeed="0.00" departDelay="44.00" arrival="398.00" arrivalLane="51i_0" arrivalPos="10.00" arrivalPosLat="0.00" arrivalSpeed="12.94" duration="289.00" routeLength="1016.17" waitSteps="155" timeLoss="217.47" rerouteNo="0" devices="tripinfo_62" vType="type2" speedFactor="1.00" vaporized=""/>