<?xml version="1.0" encoding="UTF-8"?>

<!-- generated on Saturday 19 January 2019 08:59:50 PM IST by SUMO gui Version 0.32.0
<?xml version="1.0" encoding="UTF-8"?>

<configuration xmlns:xsi="http://www.w3.org/2001/XMLSchema-instance" xsi:noNamespaceSchemaLocation="http://sumo.dlr.de/xsd/sumoConfiguration.xsd">

    <input>
        <net-file value="data/cross_2lanes.net.xml"/>
        <route-files value="data/cross.rou.xml"/>
        <additional-files value="data/cross.det.xml"/>
    </input>

    <output>
        <tripinfo-output value="tripinfo.xml"/>
    </output>

    <time>
        <begin value="0"/>
    </time>

    <processing>
        <lateral-resolution value="0.64"/>
    </processing>

    <report>
        <verbose value="true"/>
        <no-step-log value="true"/>
    </report>

    <gui_only>
        <start value="true"/>
    </gui_only>

</configuration>
-->

<tripinfos xmlns:xsi="http://www.w3.org/2001/XMLSchema-instance" xsi:noNamespaceSchemaLocation="http://sumo.dlr.de/xsd/tripinfo_file.xsd">
    <tripinfo id="3" depart="5.00" departLane="54o_0" departPos="2.30" departPosLat="0.00" departSpeed="0.00" departDelay="0.00" arrival="90.00" arrivalLane="53i_0" arrivalPos="10.00" arrivalPosLat="0.00" arrivalSpeed="15.88" duration="85.00" routeLength="1017.90" waitSteps="0" timeLoss="12.53" rerouteNo="0" devices="tripinfo_3" vType="type2" speedFactor="1.00" vaporized=""/>
    <tripinfo id="5" depart="10.00" departLane="54o_0" departPos="2.30" departPosLat="0.00" departSpeed="0.00" departDelay="0.00" arrival="93.00" arrivalLane="52i_0" arrivalPos="10.00" arrivalPosLat="0.00" arrivalSpeed="12.34" duration="83.00" routeLength="1000.20" waitSteps="0" timeLoss="11.77" rerouteNo="0" devices="tripinfo_5" vType="type2" speedFactor="1.00" vaporized=""/>
    <tripinfo id="4" depart="7.00" departLane="54o_0" departPos="2.30" departPosLat="0.00" departSpeed="0.00" departDelay="2.00" arrival="93.00" arrivalLane="51i_0" arrivalPos="10.00" arrivalPosLat="0.00" arrivalSpeed="14.29" duration="86.00" routeLength="1016.17" waitSteps="0" timeLoss="13.49" rerouteNo="0" devices="tripinfo_4" vType="type2" speedFactor="1.00" vaporized=""/>
    <tripinfo id="15" depart="20.00" departLane="54o_0" departPos="5.10" departPosLat="0.00" departSpeed="0.00" departDelay="0.00" arrival="100.00" arrivalLane="53i_0" arrivalPos="10.00" arrivalPosLat="0.00" arrivalSpeed="12.33" duration="80.00" routeLength="1015.10" waitSteps="0" timeLoss="8.33" rerouteNo="0" devices="tripinfo_15" vType="type3" speedFactor="1.00" vaporized=""/>
    <tripinfo id="16" depart="23.00" departLane="54o_0" departPos="5.10" departPosLat="0.00" departSpeed="0.00" departDelay="3.00" arrival="104.00" arrivalLane="51i_0" arrivalPos="10.00" arrivalPosLat="0.00" arrivalSpeed="12.52" duration="81.00" routeLength="1013.37" waitSteps="0" timeLoss="9.19" rerouteNo="0" devices="tripinfo_16" vType="type3" speedFactor="1.00" vaporized=""/>
    <tripinfo id="12" depart="15.00" departLane="51o_0" departPos="5.10" departPosLat="0.00" departSpeed="0.00" departDelay="0.00" arrival="107.00" arrivalLane="52i_0" arrivalPos="10.00" arrivalPosLat="0.00" arrivalSpeed="12.71" duration="92.00" routeLength="1015.10" waitSteps="6" timeLoss="20.68" rerouteNo="0" devices="tripinfo_12" vType="type3" speedFactor="1.00" vaporized=""/>
    <tripinfo id="14" depart="21.00" departLane="51o_0" departPos="5.10" departPosLat="0.00" departSpeed="0.00" departDelay="6.00" arrival="108.00" arrivalLane="53i_1" arrivalPos="10.00" arrivalPosLat="-0.74" arrivalSpeed="12.07" duration="87.00" routeLength="1013.37" waitSteps="3" timeLoss="15.59" rerouteNo="0" devices="tripinfo_14" vType="type3" speedFactor="1.00" vaporized=""/>
    <tripinfo id="2" depart="8.00" departLane="51o_0" departPos="2.30" departPosLat="0.00" departSpeed="0.00" departDelay="3.00" arrival="110.00" arrivalLane="53i_0" arrivalPos="10.00" arrivalPosLat="0.00" arrivalSpeed="12.72" duration="102.00" routeLength="1016.17" waitSteps="15" timeLoss="29.52" rerouteNo="0" devices="tripinfo_2" vType="type2" speedFactor="1.00" vaporized=""/>
    <tripinfo id="0" depart="5.00" departLane="51o_0" departPos="2.30" departPosLat="0.00" departSpeed="0.00" departDelay="0.00" arrival="110.00" arrivalLane="52i_0" arrivalPos="10.00" arrivalPosLat="-0.09" arrivalSpeed="12.57" duration="105.00" routeLength="1017.90" waitSteps="19" timeLoss="33.09" rerouteNo="0" devices="tripinfo_0" vType="type2" speedFactor="1.00" vaporized=""/>
    <tripinfo id="1" depart="7.00" departLane="51o_0" departPos="2.30" departPosLat="0.00" departSpeed="0.00" departDelay="2.00" arrival="110.00" arrivalLane="54i_0" arrivalPos="10.00" arrivalPosLat="0.00" arrivalSpeed="13.86" duration="103.00" routeLength="1000.20" waitSteps="16" timeLoss="31.82" rerouteNo="0" devices="tripinfo_1" vType="type2" speedFactor="1.00" vaporized=""/>
    <tripinfo id="24" depart="25.00" departLane="51o_0" departPos="5.10" departPosLat="0.00" departSpeed="0.00" departDelay="0.00" arrival="110.00" arrivalLane="52i_1" arrivalPos="10.00" arrivalPosLat="-0.74" arrivalSpeed="11.55" duration="85.00" routeLength="1015.10" waitSteps="0" timeLoss="12.91" rerouteNo="0" devices="tripinfo_24" vType="type4" speedFactor="1.00" vaporized=""/>
    <tripinfo id="25" depart="30.00" departLane="51o_0" departPos="5.10" departPosLat="0.00" departSpeed="0.00" departDelay="0.00" arrival="111.00" arrivalLane="54i_1" arrivalPos="10.00" arrivalPosLat="0.00" arrivalSpeed="13.12" duration="81.00" routeLength="997.40" waitSteps="0" timeLoss="10.30" rerouteNo="0" devices="tripinfo_25" vType="type4" speedFactor="1.00" vaporized=""/>
    <tripinfo id="13" depart="18.00" departLane="51o_0" departPos="5.10" departPosLat="0.00" departSpeed="0.00" departDelay="3.00" arrival="112.00" arrivalLane="54i_0" arrivalPos="10.00" arrivalPosLat="0.00" arrivalSpeed="11.59" duration="94.00" routeLength="997.40" waitSteps="5" timeLoss="23.57" rerouteNo="0" devices="tripinfo_13" vType="type3" speedFactor="1.00" vaporized=""/>
    <tripinfo id="26" depart="33.00" departLane="51o_0" departPos="5.10" departPosLat="0.00" departSpeed="0.00" departDelay="3.00" arrival="114.00" arrivalLane="53i_0" arrivalPos="10.00" arrivalPosLat="0.00" arrivalSpeed="13.02" duration="81.00" routeLength="1013.37" waitSteps="0" timeLoss="9.32" rerouteNo="0" devices="tripinfo_26" vType="type4" speedFactor="1.00" vaporized=""/>
    <tripinfo id="11" depart="18.00" departLane="53o_0" departPos="5.10" departPosLat="0.00" departSpeed="0.00" departDelay="3.00" arrival="123.00" arrivalLane="52i_0" arrivalPos="10.00" arrivalPosLat="0.00" arrivalSpeed="10.91" duration="105.00" routeLength="1013.37" waitSteps="19" timeLoss="33.59" rerouteNo="0" devices="tripinfo_11" vType="type3" speedFactor="1.00" vaporized=""/>
    <tripinfo id="10" depart="15.00" departLane="53o_0" departPos="5.10" departPosLat="0.00" departSpeed="0.00" departDelay="0.00" arrival="124.00" arrivalLane="51i_0" arrivalPos="10.00" arrivalPosLat="0.00" arrivalSpeed="13.52" duration="109.00" routeLength="997.40" waitSteps="24" timeLoss="38.54" rerouteNo="0" devices="tripinfo_10" vType="type3" speedFactor="1.00" vaporized=""/>
    <tripinfo id="21" depart="25.00" departLane="53o_0" departPos="5.10" departPosLat="0.00" departSpeed="0.00" departDelay="0.00" arrival="124.00" arrivalLane="54i_0" arrivalPos="10.00" arrivalPosLat="0.00" arrivalSpeed="12.50" duration="99.00" routeLength="1015.10" waitSteps="12" timeLoss="27.24" rerouteNo="0" devices="tripinfo_21" vType="type4" speedFactor="1.00" vaporized=""/>
    <tripinfo id="9" depart="10.00" departLane="53o_0" departPos="2.30" departPosLat="0.00" departSpeed="0.00" departDelay="0.00" arrival="126.00" arrivalLane="54i_0" arrivalPos="10.00" arrivalPosLat="0.00" arrivalSpeed="14.71" duration="116.00" routeLength="1017.90" waitSteps="30" timeLoss="43.88" rerouteNo="0" devices="tripinfo_9" vType="type2" speedFactor="1.00" vaporized=""/>
    <tripinfo id="33" depart="35.00" departLane="53o_0" departPos="7.20" departPosLat="0.00" departSpeed="0.00" departDelay="0.00" arrival="126.00" arrivalLane="54i_2" arrivalPos="10.00" arrivalPosLat="0.00" arrivalSpeed="11.53" duration="91.00" routeLength="1013.00" waitSteps="0" timeLoss="18.91" rerouteNo="0" devices="tripinfo_33" vType="type5" speedFactor="1.00" vaporized=""/>
    <tripinfo id="22" depart="28.00" departLane="53o_0" departPos="5.10" departPosLat="0.00" departSpeed="0.00" departDelay="3.00" arrival="127.00" arrivalLane="51i_1" arrivalPos="10.00" arrivalPosLat="0.00" arrivalSpeed="13.08" duration="99.00" routeLength="997.40" waitSteps="13" timeLoss="28.12" rerouteNo="0" devices="tripinfo_22" vType="type4" speedFactor="1.00" vaporized=""/>
    <tripinfo id="23" depart="31.00" departLane="53o_0" departPos="5.10" departPosLat="0.00" departSpeed="0.00" departDelay="6.00" arrival="128.00" arrivalLane="52i_0" arrivalPos="10.00" arrivalPosLat="0.00" arrivalSpeed="12.14" duration="97.00" routeLength="1013.37" waitSteps="8" timeLoss="25.26" rerouteNo="0" devices="tripinfo_23" vType="type4" speedFactor="1.00" vaporized=""/>
    <tripinfo id="34" depart="40.00" departLane="53o_0" departPos="7.20" departPosLat="0.00" departSpeed="0.00" departDelay="5.00" arrival="128.00" arrivalLane="51i_0" arrivalPos="10.00" arrivalPosLat="0.00" arrivalSpeed="11.68" duration="88.00" routeLength="995.30" waitSteps="0" timeLoss="17.25" rerouteNo="0" devices="tripinfo_34" vType="type5" speedFactor="1.00" vaporized=""/>
    <tripinfo id="35" depart="45.00" departLane="53o_0" departPos="7.20" departPosLat="0.00" departSpeed="0.00" departDelay="5.00" arrival="130.00" arrivalLane="52i_0" arrivalPos="10.00" arrivalPosLat="0.00" arrivalSpeed="10.31" duration="85.00" routeLength="1011.27" waitSteps="0" timeLoss="13.87" rerouteNo="0" devices="tripinfo_35" vType="type5" speedFactor="1.00" vaporized=""/>
    <tripinfo id="45" depart="50.00" departLane="53o_0" departPos="10.00" departPosLat="0.00" departSpeed="0.00" departDelay="0.00" arrival="135.00" arrivalLane="54i_0" arrivalPos="10.00" arrivalPosLat="0.00" arrivalSpeed="11.63" duration="85.00" routeLength="1010.20" waitSteps="0" timeLoss="13.33" rerouteNo="0" devices="tripinfo_45" vType="type6" speedFactor="1.00" vaporized=""/>
    <tripinfo id="46" depart="56.00" departLane="53o_0" departPos="10.00" departPosLat="0.00" departSpeed="0.00" departDelay="6.00" arrival="140.00" arrivalLane="51i_0" arrivalPos="10.00" arrivalPosLat="0.00" arrivalSpeed="11.48" duration="84.00" routeLength="992.50" waitSteps="0" timeLoss="13.63" rerouteNo="0" devices="tripinfo_46" vType="type6" speedFactor="1.00" vaporized=""/>
    <tripinfo id="18" depart="20.00" departLane="52o_0" departPos="5.10" departPosLat="0.00" departSpeed="0.00" departDelay="0.00" arrival="147.00" arrivalLane="51i_0" arrivalPos="10.00" arrivalPosLat="0.00" arrivalSpeed="12.45" duration="127.00" routeLength="1015.10" waitSteps="42" timeLoss="55.25" rerouteNo="0" devices="tripinfo_18" vType="type3" speedFactor="1.00" vaporized=""/>
    <tripinfo id="19" depart="23.00" departLane="52o_0" departPos="5.10" departPosLat="0.00" departSpeed="0.00" departDelay="3.00" arrival="149.00" arrivalLane="54i_1" arrivalPos="10.00" arrivalPosLat="-0.74" arrivalSpeed="11.94" duration="126.00" routeLength="1013.37" waitSteps="40" timeLoss="54.27" rerouteNo="0" devices="tripinfo_19" vType="type3" speedFactor="1.00" vaporized=""/>
    <tripinfo id="20" depart="26.00" departLane="52o_0" departPos="5.10" departPosLat="0.00" departSpeed="0.00" departDelay="1.00" arrival="149.00" arrivalLane="53i_1" arrivalPos="10.00" arrivalPosLat="0.00" arrivalSpeed="11.80" duration="123.00" routeLength="997.40" waitSteps="37" timeLoss="52.67" rerouteNo="0" devices="tripinfo_20" vType="type4" speedFactor="1.00" vaporized=""/>
    <tripinfo id="7" depart="11.00" departLane="52o_0" departPos="2.30" departPosLat="0.00" departSpeed="0.00" departDelay="1.00" arrival="150.00" arrivalLane="54i_0" arrivalPos="10.00" arrivalPosLat="0.00" arrivalSpeed="14.92" duration="139.00" routeLength="1016.17" waitSteps="51" timeLoss="67.00" rerouteNo="0" devices="tripinfo_7" vType="type2" speedFactor="1.00" vaporized=""/>
    <tripinfo id="8" depart="13.00" departLane="52o_0" departPos="2.30" departPosLat="0.00" departSpeed="0.00" departDelay="3.00" arrival="151.00" arrivalLane="53i_0" arrivalPos="10.00" arrivalPosLat="0.00" arrivalSpeed="15.34" duration="138.00" routeLength="1000.20" waitSteps="51" timeLoss="66.77" rerouteNo="0" devices="tripinfo_8" vType="type2" speedFactor="1.00" vaporized=""/>
    <tripinfo id="30" depart="35.00" departLane="52o_0" departPos="7.20" departPosLat="0.00" departSpeed="0.00" departDelay="0.00" arrival="151.00" arrivalLane="51i_1" arrivalPos="10.00" arrivalPosLat="-0.44" arrivalSpeed="11.44" duration="116.00" routeLength="1013.00" waitSteps="23" timeLoss="44.73" rerouteNo="0" devices="tripinfo_30" vType="type5" speedFactor="1.00" vaporized=""/>
    <tripinfo id="6" depart="10.00" departLane="52o_0" departPos="2.30" departPosLat="0.00" departSpeed="0.00" departDelay="0.00" arrival="152.00" arrivalLane="51i_0" arrivalPos="10.00" arrivalPosLat="0.00" arrivalSpeed="12.84" duration="142.00" routeLength="1017.90" waitSteps="54" timeLoss="69.74" rerouteNo="0" devices="tripinfo_6" vType="type2" speedFactor="1.00" vaporized=""/>
    <tripinfo id="31" depart="40.00" departLane="52o_0" departPos="7.20" departPosLat="0.00" departSpeed="0.00" departDelay="5.00" arrival="152.00" arrivalLane="54i_1" arrivalPos="10.00" arrivalPosLat="-1.20" arrivalSpeed="11.46" duration="112.00" routeLength="1011.27" waitSteps="20" timeLoss="40.68" rerouteNo="0" devices="tripinfo_31" vType="type5" speedFactor="1.00" vaporized=""/>
    <tripinfo id="27" depart="30.00" departLane="54o_0" departPos="5.10" departPosLat="0.00" departSpeed="0.00" departDelay="0.00" arrival="155.00" arrivalLane="53i_0" arrivalPos="10.00" arrivalPosLat="0.00" arrivalSpeed="10.61" duration="125.00" routeLength="1015.10" waitSteps="39" timeLoss="53.47" rerouteNo="0" devices="tripinfo_27" vType="type4" speedFactor="1.00" vaporized=""/>
    <tripinfo id="17" depart="26.00" departLane="54o_0" departPos="5.10" departPosLat="0.00" departSpeed="0.00" departDelay="6.00" arrival="157.00" arrivalLane="52i_0" arrivalPos="10.00" arrivalPosLat="0.00" arrivalSpeed="12.47" duration="131.00" routeLength="997.40" waitSteps="45" timeLoss="60.16" rerouteNo="0" devices="tripinfo_17" vType="type3" speedFactor="1.00" vaporized=""/>
    <tripinfo id="28" depart="33.00" departLane="54o_0" departPos="5.10" departPosLat="0.00" departSpeed="0.00" departDelay="3.00" arrival="157.00" arrivalLane="51i_0" arrivalPos="10.00" arrivalPosLat="0.00" arrivalSpeed="13.25" duration="124.00" routeLength="1013.37" waitSteps="38" timeLoss="52.72" rerouteNo="0" devices="tripinfo_28" vType="type4" speedFactor="1.00" vaporized=""/>
    <tripinfo id="29" depart="36.00" departLane="54o_0" departPos="5.10" departPosLat="0.00" departSpeed="0.00" departDelay="6.00" arrival="159.00" arrivalLane="52i_0" arrivalPos="10.00" arrivalPosLat="0.00" arrivalSpeed="11.82" duration="123.00" routeLength="997.40" waitSteps="36" timeLoss="52.38" rerouteNo="0" devices="tripinfo_29" vType="type4" speedFactor="1.00" vaporized=""/>
    <tripinfo id="63" depart="65.00" departLane="54o_0" departPos="2.30" departPosLat="0.00" departSpeed="0.00" departDelay="0.00" arrival="160.00" arrivalLane="53i_0" arrivalPos="10.00" arrivalPosLat="0.00" arrivalSpeed="13.98" duration="95.00" routeLength="1017.90" waitSteps="4" timeLoss="23.17" rerouteNo="0" devices="tripinfo_63" vType="type2" speedFactor="1.00" vaporized=""/>
    <tripinfo id="40" depart="45.00" departLane="54o_0" departPos="10.00" departPosLat="0.00" departSpeed="0.00" departDelay="0.00" arrival="160.00" arrivalLane="51i_0" arrivalPos="10.00" arrivalPosLat="0.00" arrivalSpeed="11.98" duration="115.00" routeLength="1008.47" waitSteps="21" timeLoss="43.78" rerouteNo="0" devices="tripinfo_40" vType="type6" speedFactor="1.00" vaporized=""/>
    <tripinfo id="41" depart="50.00" departLane="54o_0" departPos="10.00" departPosLat="0.00" departSpeed="0.00" departDelay="5.00" arrival="161.00" arrivalLane="52i_0" arrivalPos="10.00" arrivalPosLat="0.00" arrivalSpeed="11.17" duration="111.00" routeLength="992.50" waitSteps="19" timeLoss="40.97" rerouteNo="0" devices="tripinfo_41" vType="type6" speedFactor="1.00" vaporized=""/>
    <tripinfo id="39" depart="40.00" departLane="54o_0" departPos="7.20" departPosLat="0.00" departSpeed="0.00" departDelay="0.00" arrival="161.00" arrivalLane="53i_1" arrivalPos="10.00" arrivalPosLat="-1.20" arrivalSpeed="11.39" duration="121.00" routeLength="1013.00" waitSteps="29" timeLoss="49.55" rerouteNo="0" devices="tripinfo_39" vType="type5" speedFactor="1.00" vaporized=""/>
    <tripinfo id="75" depart="80.00" departLane="54o_0" departPos="5.10" departPosLat="0.00" departSpeed="0.00" departDelay="0.00" arrival="164.00" arrivalLane="53i_0" arrivalPos="10.00" arrivalPosLat="0.00" arrivalSpeed="12.19" duration="84.00" routeLength="1015.10" waitSteps="0" timeLoss="11.94" rerouteNo="0" devices="tripinfo_75" vType="type3" speedFactor="1.00" vaporized=""/>
    <tripinfo id="76" depart="83.00" departLane="54o_0" departPos="5.10" departPosLat="0.00" departSpeed="0.00" departDelay="3.00" arrival="166.00" arrivalLane="51i_0" arrivalPos="10.00" arrivalPosLat="0.46" arrivalSpeed="12.25" duration="83.00" routeLength="1013.37" waitSteps="0" timeLoss="11.46" rerouteNo="0" devices="tripinfo_76" vType="type3" speedFactor="1.00" vaporized=""/>
    <tripinfo id="64" depart="66.00" departLane="54o_0" departPos="2.30" departPosLat="0.00" departSpeed="0.00" departDelay="1.00" arrival="168.00" arrivalLane="51i_0" arrivalPos="10.00" arrivalPosLat="0.00" arrivalSpeed="15.15" duration="102.00" routeLength="1016.17" waitSteps="5" timeLoss="29.91" rerouteNo="0" devices="tripinfo_64" vType="type2" speedFactor="1.00" vaporized=""/>
    <tripinfo id="65" depart="70.00" departLane="54o_0" departPos="2.30" departPosLat="0.00" departSpeed="0.00" departDelay="0.00" arrival="169.00" arrivalLane="52i_0" arrivalPos="10.00" arrivalPosLat="0.00" arrivalSpeed="14.01" duration="99.00" routeLength="1000.20" waitSteps="5" timeLoss="28.21" rerouteNo="0" devices="tripinfo_65" vType="type2" speedFactor="1.00" vaporized=""/>
    <tripinfo id="87" depart="90.00" departLane="54o_0" departPos="5.10" departPosLat="0.00" departSpeed="0.00" departDelay="0.00" arrival="171.00" arrivalLane="53i_0" arrivalPos="10.00" arrivalPosLat="0.00" arrivalSpeed="13.43" duration="81.00" routeLength="1015.10" waitSteps="0" timeLoss="9.04" rerouteNo="0" devices="tripinfo_87" vType="type4" speedFactor="1.00" vaporized=""/>
    <tripinfo id="88" depart="93.00" departLane="54o_0" departPos="5.10" departPosLat="0.00" departSpeed="0.00" departDelay="3.00" arrival="175.00" arrivalLane="51i_0" arrivalPos="10.00" arrivalPosLat="0.00" arrivalSpeed="12.90" duration="82.00" routeLength="1013.37" waitSteps="0" timeLoss="9.86" rerouteNo="0" devices="tripinfo_88" vType="type4" speedFactor="1.00" vaporized=""/>
    <tripinfo id="38" depart="50.00" departLane="51o_0" departPos="7.20" departPosLat="0.00" departSpeed="0.00" departDelay="10.00" arrival="180.00" arrivalLane="53i_0" arrivalPos="10.00" arrivalPosLat="0.00" arrivalSpeed="11.51" duration="130.00" routeLength="1011.27" waitSteps="38" timeLoss="58.70" rerouteNo="0" devices="tripinfo_38" vType="type5" speedFactor="1.00" vaporized=""/>
    <tripinfo id="36" depart="40.00" departLane="51o_0" departPos="7.20" departPosLat="0.00" departSpeed="0.00" departDelay="0.00" arrival="180.00" arrivalLane="52i_0" arrivalPos="10.00" arrivalPosLat="0.00" arrivalSpeed="10.85" duration="140.00" routeLength="1013.00" waitSteps="49" timeLoss="68.60" rerouteNo="0" devices="tripinfo_36" vType="type5" speedFactor="1.00" vaporized=""/>
    <tripinfo id="37" depart="45.00" departLane="51o_0" departPos="7.20" departPosLat="0.00" departSpeed="0.00" departDelay="5.00" arrival="181.00" arrivalLane="54i_0" arrivalPos="10.00" arrivalPosLat="0.00" arrivalSpeed="11.04" duration="136.00" routeLength="995.30" waitSteps="45" timeLoss="65.71" rerouteNo="0" devices="tripinfo_37" vType="type5" speedFactor="1.00" vaporized=""/>
    <tripinfo id="48" depart="55.00" departLane="51o_0" departPos="10.00" departPosLat="0.00" departSpeed="0.00" departDelay="5.00" arrival="183.00" arrivalLane="52i_0" arrivalPos="10.00" arrivalPosLat="0.00" arrivalSpeed="11.30" duration="128.00" routeLength="1010.20" waitSteps="32" timeLoss="56.43" rerouteNo="0" devices="tripinfo_48" vType="type6" speedFactor="1.00" vaporized=""/>
    <tripinfo id="49" depart="61.00" departLane="51o_0" departPos="10.00" departPosLat="0.00" departSpeed="0.00" departDelay="11.00" arrival="184.00" arrivalLane="54i_0" arrivalPos="10.00" arrivalPosLat="0.00" arrivalSpeed="11.56" duration="123.00" routeLength="992.50" waitSteps="31" timeLoss="52.71" rerouteNo="0" devices="tripinfo_49" vType="type6" speedFactor="1.00" vaporized=""/>
    <tripinfo id="72" depart="75.00" departLane="51o_0" departPos="5.10" departPosLat="0.00" departSpeed="0.00" departDelay="0.00" arrival="185.00" arrivalLane="52i_0" arrivalPos="10.00" arrivalPosLat="0.00" arrivalSpeed="12.04" duration="110.00" routeLength="1015.10" waitSteps="21" timeLoss="38.59" rerouteNo="0" devices="tripinfo_72" vType="type3" speedFactor="1.00" vaporized=""/>
    <tripinfo id="74" depart="81.00" departLane="51o_0" departPos="5.10" departPosLat="0.00" departSpeed="0.00" departDelay="6.00" arrival="187.00" arrivalLane="53i_1" arrivalPos="10.00" arrivalPosLat="-0.74" arrivalSpeed="12.70" duration="106.00" routeLength="1013.37" waitSteps="17" timeLoss="34.19" rerouteNo="0" devices="tripinfo_74" vType="type3" speedFactor="1.00" vaporized=""/>
    <tripinfo id="62" depart="71.00" departLane="51o_0" departPos="2.30" departPosLat="0.00" departSpeed="0.00" departDelay="6.00" arrival="188.00" arrivalLane="53i_0" arrivalPos="10.00" arrivalPosLat="0.00" arrivalSpeed="15.77" duration="117.00" routeLength="1016.17" waitSteps="26" timeLoss="44.55" rerouteNo="0" devices="tripinfo_62" vType="type2" speedFactor="1.00" vaporized=""/>
    <tripinfo id="84" depart="85.00" departLane="51o_0" departPos="5.10" departPosLat="0.00" departSpeed="0.00" departDelay="0.00" arrival="188.00" arrivalLane="52i_0" arrivalPos="10.00" arrivalPosLat="0.00" arrivalSpeed="13.08" duration="103.00" routeLength="1015.10" waitSteps="13" timeLoss="31.52" rerouteNo="0" devices="tripinfo_84" vType="type4" speedFactor="1.00" vaporized=""/>
    <tripinfo id="73" depart="78.00" departLane="51o_0" departPos="5.10" departPosLat="0.00" departSpeed="0.00" departDelay="3.00" arrival="190.00" arrivalLane="54i_0" arrivalPos="10.00" arrivalPosLat="1.20" arrivalSpeed="11.62" duration="112.00" routeLength="997.40" waitSteps="21" timeLoss="41.48" rerouteNo="0" devices="tripinfo_73" vType="type3" speedFactor="1.00" vaporized=""/>
    <tripinfo id="96" depart="100.00" departLane="51o_0" departPos="7.20" departPosLat="0.00" departSpeed="0.00" departDelay="0.00" arrival="190.00" arrivalLane="52i_1" arrivalPos="10.00" arrivalPosLat="0.00" arrivalSpeed="11.60" duration="90.00" routeLength="1013.00" waitSteps="0" timeLoss="18.75" rerouteNo="0" devices="tripinfo_96" vType="type5" speedFactor="1.00" vaporized=""/>
    <tripinfo id="60" depart="67.00" departLane="51o_0" departPos="2.30" departPosLat="0.00" departSpeed="0.00" departDelay="2.00" arrival="191.00" arrivalLane="52i_0" arrivalPos="10.00" arrivalPosLat="0.00" arrivalSpeed="15.69" duration="124.00" routeLength="1017.90" waitSteps="28" timeLoss="51.61" rerouteNo="0" devices="tripinfo_60" vType="type2" speedFactor="1.00" vaporized=""/>
    <tripinfo id="86" depart="93.00" departLane="51o_0" departPos="5.10" departPosLat="0.00" departSpeed="0.00" departDelay="3.00" arrival="192.00" arrivalLane="53i_0" arrivalPos="10.00" arrivalPosLat="0.00" arrivalSpeed="12.41" duration="99.00" routeLength="1013.37" waitSteps="8" timeLoss="27.56" rerouteNo="0" devices="tripinfo_86" vType="type4" speedFactor="1.00" vaporized=""/>
    <tripinfo id="61" depart="69.00" departLane="51o_0" departPos="2.30" departPosLat="0.00" departSpeed="0.00" departDelay="4.00" arrival="192.00" arrivalLane="54i_0" arrivalPos="10.00" arrivalPosLat="0.00" arrivalSpeed="11.67" duration="123.00" routeLength="1000.20" waitSteps="29" timeLoss="52.34" rerouteNo="0" devices="tripinfo_61" vType="type2" speedFactor="1.00" vaporized=""/>
    <tripinfo id="85" depart="90.00" departLane="51o_0" departPos="5.10" departPosLat="0.00" departSpeed="0.00" departDelay="0.00" arrival="193.00" arrivalLane="54i_1" arrivalPos="10.00" arrivalPosLat="0.00" arrivalSpeed="13.02" duration="103.00" routeLength="997.40" waitSteps="3" timeLoss="32.11" rerouteNo="0" devices="tripinfo_85" vType="type4" speedFactor="1.00" vaporized=""/>
    <tripinfo id="81" depart="85.00" departLane="53o_0" departPos="5.10" departPosLat="0.00" departSpeed="0.00" departDelay="0.00" arrival="197.00" arrivalLane="54i_0" arrivalPos="10.00" arrivalPosLat="1.46" arrivalSpeed="13.13" duration="112.00" routeLength="1015.10" waitSteps="23" timeLoss="40.09" rerouteNo="0" devices="tripinfo_81" vType="type4" speedFactor="1.00" vaporized=""/>
    <tripinfo id="47" depart="62.00" departLane="53o_0" departPos="10.00" departPosLat="0.00" departSpeed="0.00" departDelay="12.00" arrival="197.00" arrivalLane="52i_0" arrivalPos="10.00" arrivalPosLat="0.00" arrivalSpeed="12.08" duration="135.00" routeLength="1008.47" waitSteps="41" timeLoss="63.76" rerouteNo="0" devices="tripinfo_47" vType="type6" speedFactor="1.00" vaporized=""/>
    <tripinfo id="70" depart="77.00" departLane="53o_0" departPos="5.10" departPosLat="0.00" departSpeed="0.00" departDelay="2.00" arrival="197.00" arrivalLane="51i_0" arrivalPos="10.00" arrivalPosLat="0.00" arrivalSpeed="12.68" duration="120.00" routeLength="997.40" waitSteps="34" timeLoss="49.25" rerouteNo="0" devices="tripinfo_70" vType="type3" speedFactor="1.00" vaporized=""/>
    <tripinfo id="69" depart="74.00" departLane="53o_0" departPos="2.30" departPosLat="0.00" departSpeed="0.00" departDelay="4.00" arrival="199.00" arrivalLane="54i_0" arrivalPos="10.00" arrivalPosLat="0.00" arrivalSpeed="14.86" duration="125.00" routeLength="1017.90" waitSteps="38" timeLoss="52.49" rerouteNo="0" devices="tripinfo_69" vType="type2" speedFactor="1.00" vaporized=""/>
    <tripinfo id="93" depart="95.00" departLane="53o_0" departPos="7.20" departPosLat="0.00" departSpeed="0.00" departDelay="0.00" arrival="199.00" arrivalLane="54i_1" arrivalPos="10.00" arrivalPosLat="-0.20" arrivalSpeed="11.40" duration="104.00" routeLength="1013.00" waitSteps="11" timeLoss="32.47" rerouteNo="0" devices="tripinfo_93" vType="type5" speedFactor="1.00" vaporized=""/>
    <tripinfo id="71" depart="79.00" departLane="53o_0" departPos="5.10" departPosLat="0.00" departSpeed="0.00" departDelay="4.00" arrival="202.00" arrivalLane="52i_0" arrivalPos="10.00" arrivalPosLat="0.00" arrivalSpeed="12.54" duration="123.00" routeLength="1013.37" waitSteps="32" timeLoss="51.83" rerouteNo="0" devices="tripinfo_71" vType="type3" speedFactor="1.00" vaporized=""/>
    <tripinfo id="83" depart="91.00" departLane="53o_0" departPos="5.10" departPosLat="0.00" departSpeed="0.00" departDelay="6.00" arrival="205.00" arrivalLane="52i_0" arrivalPos="10.00" arrivalPosLat="0.00" arrivalSpeed="12.97" duration="114.00" routeLength="1013.37" waitSteps="22" timeLoss="42.14" rerouteNo="0" devices="tripinfo_83" vType="type4" speedFactor="1.00" vaporized=""/>
    <tripinfo id="105" depart="110.00" departLane="53o_0" departPos="10.00" departPosLat="0.00" departSpeed="0.00" departDelay="0.00" arrival="206.00" arrivalLane="54i_0" arrivalPos="10.00" arrivalPosLat="0.00" arrivalSpeed="11.69" duration="96.00" routeLength="1010.20" waitSteps="0" timeLoss="24.04" rerouteNo="0" devices="tripinfo_105" vType="type6" speedFactor="1.00" vaporized=""/>
    <tripinfo id="95" depart="103.00" departLane="53o_0" departPos="7.20" departPosLat="0.00" departSpeed="0.00" departDelay="3.00" arrival="207.00" arrivalLane="52i_0" arrivalPos="10.00" arrivalPosLat="0.00" arrivalSpeed="9.25" duration="104.00" routeLength="1011.27" waitSteps="6" timeLoss="32.78" rerouteNo="0" devices="tripinfo_95" vType="type5" speedFactor="1.00" vaporized=""/>
    <tripinfo id="82" depart="87.00" departLane="53o_0" departPos="5.10" departPosLat="0.00" departSpeed="0.00" departDelay="2.00" arrival="217.00" arrivalLane="51i_0" arrivalPos="10.00" arrivalPosLat="0.00" arrivalSpeed="12.10" duration="130.00" routeLength="997.40" waitSteps="0" timeLoss="59.63" rerouteNo="0" devices="tripinfo_82" vType="type4" speedFactor="1.00" vaporized=""/>
    <tripinfo id="32" depart="45.00" departLane="52o_0" departPos="7.20" departPosLat="0.00" departSpeed="0.00" departDelay="10.00" arrival="219.00" arrivalLane="53i_0" arrivalPos="10.00" arrivalPosLat="0.00" arrivalSpeed="11.86" duration="174.00" routeLength="995.30" waitSteps="77" timeLoss="103.62" rerouteNo="0" devices="tripinfo_32" vType="type5" speedFactor="1.00" vaporized=""/>
    <tripinfo id="129" depart="133.00" departLane="53o_0" departPos="2.30" departPosLat="0.00" departSpeed="0.00" departDelay="3.00" arrival="219.00" arrivalLane="54i_0" arrivalPos="10.00" arrivalPosLat="0.00" arrivalSpeed="15.37" duration="86.00" routeLength="1017.90" waitSteps="1" timeLoss="13.81" rerouteNo="0" devices="tripinfo_129" vType="type2" speedFactor="1.00" vaporized=""/>
    <tripinfo id="43" depart="56.00" departLane="52o_0" departPos="10.00" departPosLat="0.00" departSpeed="0.00" departDelay="11.00" arrival="221.00" arrivalLane="54i_0" arrivalPos="10.00" arrivalPosLat="0.00" arrivalSpeed="11.36" duration="165.00" routeLength="1008.47" waitSteps="65" timeLoss="94.23" rerouteNo="0" devices="tripinfo_43" vType="type6" speedFactor="1.00" vaporized=""/>